material_id,composition,nsites,crystal_system,space_group,volume,density,density_atomic,efermi,energy_per_atom,formation_energy_per_atom,is_gap_direct,band_gap,is_oxide
mp-1193999,Zn4Ag4P4O16,28,4,14,412.0092669667477,4.324535902210397,14.714616677383846,0.8621499300000001,-6.214990425714285,-2.027847735187074,0.0,1.7382,1.0
mp-558807,Zn4Ag4P4S16,28,3,33,603.0707987673549,3.662239614999156,21.53824281311981,2.62567311,-4.368739835357143,-0.644226537687074,1.0,2.193399999999999,0.0
mp-7262,Zn8As16,24,4,14,558.3442182356343,5.121352392989239,23.264342426484763,2.68374368,-3.682320307916666,-0.148990749583333,1.0,0.224099999999999,0.0
mp-1392030,Zn1Co1F6,8,6,148,89.10150741467612,4.441682618029638,11.137688426834517,-2.69558234,-4.586744928750001,-2.102210606250001,0.0,0.6667999999999991,0.0
mp-1215732,Zn4Co4Te12O32,52,4,5,799.4019779624491,5.277297210318371,15.373114960816327,3.35547104,-5.959574655961538,-1.543669575192307,0.0,2.8426,1.0
mp-35311,Zn1Cr1F6,8,6,148,93.75832659702702,4.098209870140475,11.719790824628378,-2.54784858,-5.44330008625,-2.643811919999999,0.0,1.6674,0.0
mp-1215793,Zn2Cr2Fe2O8,14,3,74,154.4069090109483,5.102868476993641,11.029064929353453,2.5737746,-7.60930556,-2.012926087142856,1.0,1.3234,1.0
mp-755896,Zn2Cr2O8,12,3,63,143.62098828731487,4.194738857166397,11.968415690609572,0.038523999999999,-6.809650055833333,-1.6922108724999991,1.0,2.0907,1.0
mp-6408,Zn1Cu2Ge1S4,8,1,121,147.001823583286,4.443875003832139,18.37522794791075,4.37297574,-4.52743672375,-0.698108839374999,1.0,0.369399999999999,0.0
mp-1189702,Zn2Cu4Si2S8,16,4,7,285.3026892857826,4.060762574280743,17.831418080361413,4.68042996,-4.730908700625,-0.801294544374999,1.0,1.609999999999999,0.0
mp-1232332,Zn1Cu2Si1Se4,8,1,82,175.4085450311627,5.078185669069057,21.92606812889533,3.4454038,-4.245922689999999,-0.6375325786718741,1.0,0.5549000000000001,0.0
mp-1078498,Zn1Cu2Si1Te4,8,1,121,212.43916843784984,5.713784559283442,26.554896054731227,4.88942131,-3.821127924999999,-0.389040605833332,1.0,0.158999999999999,0.0
mp-1079541,Zn1Cu2Sn1S4,8,1,82,158.3930417553635,4.607265294297925,19.79913021942044,4.69880199,-4.45945013125,-0.7068042468749991,1.0,0.094399999999999,0.0
mp-1396958,Zn1Fe1F6,8,6,148,102.49254954616984,3.81132628674886,12.81156869327123,-3.19513558,-4.978457234999995,-2.326847351249995,1.0,0.8452000000000001,0.0
mp-4008,Zn2Ge2As4,8,1,122,180.38542725334665,5.30038653730052,22.54817840666833,3.18402825,-3.965367666249999,-0.159613533749999,1.0,0.001199999999999,0.0
mp-2979,Zn4Ge4N8,16,3,33,182.23538225731187,6.052679765645053,11.389711391081992,4.156138,-10.619892318125,-0.359871936249999,1.0,1.6955,0.0
mp-4524,Zn2Ge2P4,8,1,122,158.90738908504878,4.179818738428334,19.863423635631097,4.11855147,-10.47178809375,-0.275104891488094,0.0,1.1782,0.0
mp-24547,Zn2H4Se4O16,26,4,14,338.11742999676,3.4705989965746022,13.004516538336922,-0.7890373700000001,-5.431070875,-1.229102607091346,1.0,2.7465,1.0
mp-23969,Zn2H4Se2O10,18,4,15,203.2545726969196,3.698966775728045,11.291920705384422,-0.15493486,-5.382059151111111,-1.350304374427083,1.0,2.7214,1.0
mp-1192685,Zn2H12Se8N4,26,4,4,454.8282689321875,3.032522792790744,17.49339495893029,1.69376302,-4.551250657307692,-0.528870377067307,0.0,1.4965,0.0
mp-27161,Zn16I32,48,1,142,1937.107531351394,4.378271017384577,40.356406903154046,-0.06536673,-2.308099532291665,-0.8721765856249991,1.0,2.9118,0.0
mp-1095420,Zn2Mo2O8,12,4,13,130.77924738719673,5.722572048722729,10.898270615599728,2.04460334,-7.236474136666668,-1.920267846666667,1.0,2.300799999999999,1.0
mp-1391273,Zn1Ni1F6,8,6,148,88.9184974719151,4.446346249647389,11.114812183989388,-2.80756452,-4.25173723875,-1.936362921249999,1.0,1.6071,0.0
mp-2133,Zn2O2,4,2,186,47.397148259900405,5.70421780686615,11.8492870649751,0.8923141,-4.894751419999999,-1.7908991124999991,1.0,0.7227,1.0
mp-11025,Zn8P16,24,1,96,470.1431866833324,3.598571490192827,19.58929944513885,3.55168789,-9.287010225416669,-0.315425149067459,0.0,1.4617,0.0
mp-13983,Zn1Pd1F6,8,6,148,96.16136791413771,4.9356027463992,12.020170989267216,-1.96934097,-4.22062722625,-1.9802847675,1.0,1.5893000000000002,0.0
mp-554820,Zn28S28,56,6,156,1094.3999128517012,4.141139565305906,19.54285558663752,1.87931033,-9.435018265714286,-0.9622174221205352,1.0,2.0195,0.0
mp-753,Zn8Sb8,16,3,61,391.75922728067167,6.346784757848934,24.48495170504198,4.7378534,-17.3699069225,-0.061447754999999,0.0,0.0282,0.0
mp-1190,Zn1Se1,2,0,216,45.44784771695639,5.274845268778988,22.723923858478194,1.321407,-3.329388575000001,-0.951561031171876,1.0,1.1663,0.0
mp-1102515,Zn4Se8,12,0,205,258.97780493022333,5.727850373967437,21.58148374418528,3.55281011,-3.394683860833333,-0.644161672395833,0.0,0.7291999999999991,0.0
mp-778924,Zn4Se4O16,24,3,62,299.1747288859557,4.626070935376495,12.465613703581488,0.34615205,-5.447703002499999,-1.356453151223957,1.0,2.3858,1.0
mp-1189914,Zn2Si2Ag4S8,16,4,7,332.8974915414343,4.364531119583839,20.806093221339644,2.65690428,-12.168504556875,-0.6014898295312491,0.0,1.6859000000000002,0.0
mp-3595,Zn2Si2As4,8,1,122,171.94529125925024,4.700003754302898,21.49316140740628,3.55741743,-4.19762225375,-0.1912955775,1.0,0.8866,0.0
mp-4763,Zn2Si2P4,8,1,122,151.00927439980956,3.418565574455873,18.876159299976194,4.44458853,-9.3137867975,-0.391656841488096,1.0,1.3641,0.0
mp-2713863,Zn6Sn6S18O72,102,6,161,1490.0320304952716,3.158122282351788,14.60815716171835,0.29594654,-6.373702606078432,-1.840765769166667,1.0,2.057,1.0
mp-1029469,Zn4Sn4N8,16,3,33,216.17008236895265,6.518092302715617,13.51063014805954,5.05206165,-13.0897201425,-0.111148210625,1.0,0.1207,0.0
mp-4175,Zn2Sn2P4,8,1,122,180.59078792277623,4.525181829974542,22.57384849034703,4.41672018,-13.174004035,-0.258769282738095,1.0,0.704299999999999,0.0
mp-2176,Zn3Te3,6,0,216,171.17748428055455,5.616959252306423,28.52958071342576,2.85423966,-2.885687785,-0.6841630333333321,1.0,1.073299999999999,0.0
mp-1100809,Zr3Cu6Cl18,27,5,1,652.5807048320004,3.290392088211339,24.16965573451853,1.24797202,-4.679069405925925,-1.586028209259258,0.0,1.630399999999999,0.0
mp-610738,Zr2In4Br12,18,1,128,591.2620748673273,4.49513981316358,32.84789304818485,0.50133936,-4.10026781611111,-1.446075890925924,0.0,2.41,0.0
mp-8203,Zr2P4S12,18,1,84,439.9249852520908,2.6087102563043443,24.44027695844949,2.1279227,-5.905767003333333,-0.9936775493650772,0.0,1.5351,0.0
mp-619928,Zr4Se16Cl24,44,1,138,1296.5586939018635,3.17508872869701,29.467243043224173,-0.50040893,-11.648978170227274,-1.02073578715909,0.0,1.3208,0.0
mp-570544,Zr2Se4Cl24,30,3,43,855.4071650269402,2.619025159817896,28.513572167564675,-0.18973938,-9.258833173333333,-0.9120212308749992,0.0,2.8159,0.0
mp-14651,Zr2Ag1Pd1F11,15,4,12,243.64001962851128,4.128301494355695,16.242667975234085,-0.63730415,-6.2058725,-3.127832708444444,0.0,0.165,0.0
mp-559369,Zr4H24N20O70,118,6,165,1445.23607993239,2.055720125768046,12.247763389257544,-0.835011,-6.557595332542373,-1.22880192322034,0.0,1.4474,1.0
mp-675993,Zr16N16O8,40,5,1,523.1695187502706,5.75028921947559,13.079237968756766,3.59790688,-10.081732759249997,-2.337749208249997,0.0,1.6503,1.0
mp-11583,Zr4S2N4,10,2,194,145.98198411008295,5.517455655050823,14.598198411008294,5.21253457,-9.47055019,-1.8884869265,0.0,0.5637999999999991,0.0
mp-1079726,Zr4Se2N4,10,2,194,153.3093631605836,6.269617608504008,15.33093631605836,5.10653017,-17.539479227,-1.925750150312501,0.0,0.3368,0.0
mp-1202377,Zr4Te8Br4O22,38,5,2,714.4080419698067,4.781896099111495,18.80021163078439,1.86733185,-6.762734548684211,-2.164308814035088,0.0,2.8298,1.0
mp-28672,Zr8Te4Br48,60,4,14,2430.2923795842075,3.4679800622392,40.50487299307012,-1.36153071,-4.151174094,-1.492369722444444,0.0,2.4195,0.0
mp-1101160,Zr6N4O6,16,4,8,229.0685822078297,5.069776685678375,14.316786387989357,2.2886298,-10.050144854375,-2.904702305,0.0,2.538599999999999,1.0
mp-277,Zr12N16,28,3,62,348.3795536060767,6.285991608223824,12.442126914502738,4.98353482,-16.818722965357143,-1.852383193928572,0.0,0.970499999999999,0.0
mp-17926,Zr6Ni6Sb8,20,0,220,375.8700599771964,8.277222428839028,18.79350299885982,8.09654286,-6.677528467000002,-0.7275767780000011,0.0,0.434199999999999,0.0
mp-1207474,Zr16N12O4F20,52,4,14,595.7949467627502,5.7738365716366165,11.457595130052889,3.47439057,-8.80074673923077,-3.129757613461538,1.0,2.3129,1.0
mp-29934,Zr6Ag7F31,44,6,148,547.2101925562514,5.739470811790817,12.43659528536935,0.71303094,-11.84563189909091,-3.143432856022727,0.0,2.9066,0.0
mp-29357,Zr12C2Cl28,42,3,64,1045.531637988395,3.353366936276601,24.89361042829512,2.06981723,-6.286583466190476,-2.17256115797619,0.0,1.2812,0.0
mp-28344,Zr12C2I28,42,3,64,1538.2682085564572,5.043396115340444,36.625433537058505,2.69711701,-5.145834423809525,-1.248165572261907,0.0,0.899899999999999,0.0
mp-28734,Zr6Co1Cl15,22,0,229,541.2566211450136,3.491529279421773,24.60257368840971,2.28144485,-12.91381456090909,-1.91292519625,1.0,1.0883,0.0
mp-1207507,Zr12Co2I28,42,3,64,1625.3123406203335,4.869174362181066,38.69791287191271,4.35945111,-4.9563740461904775,-1.158478945714286,0.0,0.0062,0.0
mp-28903,Zr12Fe2Cl28,42,3,64,1116.289688180036,3.271219289706985,26.57832590904848,1.93702459,-6.155462243095235,-2.0775658530952352,0.0,1.150699999999999,0.0
mp-1207511,Zr12Fe2I28,42,3,64,1641.4973025604154,4.814916862958766,39.08326910858132,4.34011271,-5.044653517142857,-1.183110583809524,0.0,1.0127,0.0
mp-1207495,Zr12Ge2I28,42,3,64,1585.240452349397,5.020973656110216,37.74382029403326,4.78595006,-4.898251531428571,-1.219898757857143,0.0,0.9028,0.0
mp-1207560,Zr12Mn2Cl28,42,3,64,1118.5324121252513,3.261967425266409,26.631724098220268,1.80162526,-6.143100664523809,-2.032252175377668,0.0,0.159599999999999,0.0
mp-531184,Zr48N8Cl120,176,0,230,4929.9674980767695,2.945595306328385,28.01117896634528,1.6989044,-12.858415445852271,-2.044138829318182,1.0,1.4074,0.0
mp-1207498,Zr12Si2I28,42,3,64,1556.8391464765928,5.01752643607382,37.06759872563316,2.94840601,-4.961655216904763,-1.245098149285715,0.0,1.084,0.0
mp-1207432,Zr6Zn23Ge1,30,0,225,465.6916249498851,7.575043353234155,15.523054164996172,3.59030909,-12.171979981,-0.328160350166666,1.0,0.257499999999999,0.0
mp-541912,Zr2Br2N2,6,6,166,117.38086358244163,5.238049756165821,19.56347726374027,2.61982266,-8.076825253333334,-1.9025169500000008,0.0,1.4423,0.0
mp-23162,Zr1Cl2,3,6,160,66.85297123118846,4.0270939931277,22.284323743729487,4.27076487,-13.56349559,-1.87860569,0.0,1.0479,0.0
mp-1100795,Zr2Cl6,8,5,2,215.59262411948515,3.043650419266591,26.949078014935644,2.16905122,-12.2620079325,-1.960230783125,0.0,0.365799999999999,0.0
mp-2459069,Zr1Cr1F6,8,1,139,145.67363817501348,2.931952004651235,18.209204771876685,-0.55457709,-7.303861795,-3.593379001249999,0.0,2.6153,0.0
mp-2767155,Zr2Fe2Cl12,16,4,15,419.4819386491777,2.848467665037979,26.217621165573608,2.32389205,-10.90233658625,-1.642609844999999,0.0,0.335199999999999,0.0
mp-13542,Zr2Ge2Te8,12,3,36,375.2881192198177,5.966838041820205,31.274009934984807,4.98161097,-23.6503608475,-0.601916393333335,0.0,0.376199999999999,0.0
mp-570506,Zr4I8,12,3,31,407.6293550748252,5.622172878385403,33.9691129229021,4.56411636,-5.010594956666665,-1.145353003333332,0.0,0.284599999999999,0.0
mp-570188,Zr4I12,16,3,59,669.8747509554491,4.679504669655121,41.86717193471557,2.58096103,-4.526845603750001,-1.246910985000001,0.0,0.1623,0.0
mp-571235,Zr6I24,30,4,13,1325.1143003803224,4.502556509294867,44.17047667934408,0.66549812,-4.156621227333331,-1.227871009333331,0.0,2.021,0.0
mp-23052,Zr2I2N2,6,3,59,150.08224688063964,5.136777020980983,25.01370781343994,2.77572061,-7.7564445216666655,-1.619780858333333,1.0,1.2172,0.0
mp-680356,Zr8N48O136,192,1,88,2614.963336069049,2.272101423217829,13.619600708692966,-1.147951009999999,-7.046156525833333,-1.100627184791666,0.0,1.5707,1.0
mp-568592,Zr2N2Cl2,6,6,166,108.66355579089964,4.29970799654982,18.11059263181661,2.50997242,-14.78540199,-2.108408165416667,0.0,1.745099999999999,0.0
mp-1207386,Zr4N4F4,12,4,14,152.08396183847694,5.425615602817437,12.673663486539745,3.28378207,-9.011846874166666,-2.745236624166667,0.0,2.0644,0.0
mp-2713851,Zr6Nb6P18O72,102,6,161,1564.4347810181016,2.987149106690143,15.33759589233433,-0.16820147,-8.590134303333334,-3.044783814740897,0.0,2.913599999999999,1.0
mp-924129,Zr1Ni1Sn1,3,0,216,57.17134916589888,7.802269818135599,19.05711638863296,6.64599366,-6.796670063333333,-0.6842003416666651,0.0,0.4954,0.0
mp-570966,Zr4P8N4Cl44,60,3,64,1828.7999485528685,2.023595811184872,30.479999142547804,-0.51900531,-4.7074514585,-1.504058376785714,0.0,2.8693,0.0
mp-31014,Zr4P8S28,40,3,70,1007.6496637969992,2.489212742148805,25.191241594924985,1.68874767,-5.802369773000001,-0.96765330767857,0.0,1.660299999999999,0.0
mp-1186,Zr1S2,3,6,164,71.28910063255313,3.618665179720018,23.763033544184378,1.90079098,-7.45580737,-1.847667448333332,0.0,1.0418,0.0
mp-9921,Zr2S6,8,4,11,172.4735477620155,3.608861478892194,21.559193470251937,2.98805215,-6.8147069575,-1.574012124374999,0.0,1.113299999999999,0.0
mp-3519,Zr4S4O4,12,0,198,187.38845591074283,4.937205519946814,15.61570465922857,4.00326534,-8.724789924166666,-2.846782856666665,0.0,2.4195,1.0
mp-1100415,Zr1Sb1Rh1,3,0,216,62.49651265960981,8.393218007790445,20.83217088653661,6.44837843,-25.33763931,-1.1401938883333331,0.0,1.1648,0.0
mp-2076,Zr1Se2,3,6,164,80.50391312521093,5.139046403440359,26.834637708403644,2.41146818,-18.704838416666664,-1.5805342943749991,0.0,0.3296,0.0
mp-1683,Zr2Se6,8,4,11,199.4116018231838,5.464371229421456,24.926450227897973,3.04578164,-17.6578893825,-1.236771233046873,0.0,0.3979,0.0
mp-1183042,Zr1Si1Ru2,4,0,225,59.03160212741808,9.04226606516436,14.75790053185452,8.3293224,-21.391558655,-0.7984018825000021,0.0,0.2353,0.0
mp-961687,Zr1Sn1Pd1,3,0,216,64.3981696930079,8.157346371479457,21.466056564335968,5.9540484,-24.35503883333333,-0.8695624016666691,0.0,0.1251,0.0
mp-17324,Zr4Sn4S12,20,3,62,497.9424921421011,4.08351704818253,24.897124607105056,3.714448179999999,-6.391487313000001,-1.397017075499999,0.0,0.9944,0.0
mp-28671,Zr2Te4Br10,16,4,12,583.2671567272545,4.247347512059873,36.454197295453405,-0.20503201,-4.145050838749999,-1.267670202291665,0.0,1.1062,0.0
mp-605,Zr2Te10,12,3,63,428.6281570041989,5.650141832798242,35.71901308368324,4.55240597,-25.556306336666665,-0.583654094166666,0.0,0.0192,0.0
mp-554326,Zr4V8O28,40,0,205,714.2177558563346,2.837426622762128,17.855443896408367,-1.898334049999999,-8.952376780250002,-2.817252799750002,0.0,2.5909,1.0
mp-1014244,Zr1Zn1N2,4,6,156,49.25286162103453,6.225274037196338,12.313215405258632,3.73142615,-13.634793105,-1.155319141875001,0.0,1.99,0.0
mp-1049,Sr6As6,12,2,189,373.04960044513166,4.3410850957987055,31.08746670376097,2.72584486,-16.194839610833334,-1.268243582083336,0.0,0.0181,0.0
mp-12418,Sr4Ca4Ge4,12,3,62,367.1161260531327,3.624674068132476,30.593010504427724,2.9367099100000003,-12.726716218333332,-0.708072101666665,0.0,0.4356,0.0
mp-7084,Sr4Ca4Si4,12,3,62,364.6958657711654,2.837263725320068,30.39132214759712,3.08389273,-10.845519739166669,-0.526279950833333,1.0,0.422399999999999,0.0
mp-20726,Sr4Ca4Sn4,12,3,62,421.581225845191,3.882242236973088,35.13176882043258,3.5051883,-3.243670250833332,-0.6744703091666651,0.0,0.288199999999999,0.0
mp-1190367,Sr2Cd2As4O14,22,5,2,317.5435816644355,4.830538061392911,14.433799166565253,0.97876745,-6.340243494545453,-2.101297096363635,0.0,2.473799999999999,1.0
mp-1193940,Sr2Co4As4O16,26,5,2,350.4354713807496,4.580470649783251,13.47828736079806,1.91522518,-6.9479993446153845,-1.956984372692308,0.0,2.3082000000000003,1.0
mp-557093,Sr8Cr16O56,80,1,137,1193.0841330142985,3.380502219293202,14.913551662678731,0.00826741,-7.656758405625001,-2.093333399125001,0.0,2.5156,1.0
mp-1218324,Sr2Cr2H2O4,10,1,123,116.0103974393574,4.941746187142947,11.60103974393574,3.04671421,-7.017528036,-2.09021523425,0.0,0.5556000000000001,1.0
mp-510607,Sr4Cr4O16,24,4,14,344.433546328756,3.926545563854614,14.351397763698166,-0.01314291,-7.63836758875,-2.448814325416667,0.0,2.857599999999999,1.0
mp-9640,Sr2Cu2Se4O12,20,4,15,322.0915306006801,4.176795019338938,16.104576530034002,1.80618696,-5.9789677395,-1.731845364968749,0.0,0.7134,1.0
mp-18685,Sr3Cu6Ge3S12,24,6,154,506.567963386432,4.087151255682293,21.10699847443467,4.16293413,-4.925946589583334,-1.042533145208333,0.0,1.046299999999999,0.0
mp-12557,Sr2Cu2As2,6,2,194,134.25629061057555,5.592695739863697,22.376048435095925,4.6657484,-14.495291576666666,-0.928628890833332,0.0,0.0038,0.0
mp-12265,Sr2Cu2F8,12,1,140,169.76871354312368,4.443780052704627,14.147392795260307,0.07910223,-9.449138025,-3.033043213333332,1.0,0.8036000000000001,0.0
mp-21609,Sr12Cu12N12,36,3,62,641.0462447560105,5.134276473739162,17.806840132111404,3.81463053,-12.262171891944444,-0.555102644861111,1.0,0.264499999999999,0.0
mp-12444,Sr2Cu2S2F2,8,1,129,134.19405957745002,5.004838895047967,16.774257447181252,4.70281359,-11.568100305,-2.279729279453125,1.0,1.5126,0.0
mp-556067,Sr1Fe2P4O14,21,5,2,267.23822845700613,3.400117626744233,12.725629926524102,1.21883608,-7.847158199523808,-2.629738262312924,0.0,2.0648,1.0
mp-560149,Sr2Fe4Se8O24,38,4,10,575.575950982088,4.080219971183101,15.14673555216021,0.94420423,-6.501717126315789,-1.66005141680921,0.0,2.3881,1.0
mp-557942,Sr2Fe6P6O26,40,4,11,511.9626208944064,3.607190865204056,12.79906552236016,1.34785813,-7.900019644749999,-2.516399376696429,0.0,0.5195000000000001,1.0
mp-18253,Sr2Ga8O14,24,4,15,343.7882719362211,4.622501466368977,14.32451133067588,0.64245617,-6.5389477708333335,-2.502236169583332,1.0,2.434599999999999,1.0
mp-978847,Sr1Ga1Ge1H1,4,6,156,76.6900483510484,5.001554805975199,19.1725120877621,3.73690702,-3.7041610775,-0.5194814759375,1.0,0.295799999999999,0.0
mp-978852,Sr1Ga1Sn1H1,4,6,156,90.08198688593316,5.10724208693893,22.520496721483287,4.20085945,-3.5207949925,-0.489479390937499,1.0,0.415099999999999,0.0
mp-1029497,Sr16Ge16N32,64,3,61,954.5481722454504,5.240348805716939,14.914815191335164,3.24369128,-6.45486019578125,-0.7068573370312501,1.0,2.4586,0.0
mp-10341,Sr1Ge1Te1O6,9,6,149,126.14829113284443,5.052851231200532,14.016476792538272,1.70480685,-6.62281138,-2.273197172407407,0.0,2.9532,1.0
mp-1187172,Sr4H4N4,12,3,62,166.93596074617898,4.08369361627382,13.911330062181582,2.19572015,-10.065699061666669,-0.822524347499999,1.0,2.0279,0.0
mp-540688,Sr4In8O16,28,3,62,373.9752655722983,6.771426405573328,13.35625948472494,4.40422506,-6.212231680714282,-2.354714595476186,0.0,1.807999999999999,1.0
mp-558219,Sr2Li2B6S12,22,4,9,475.8441984969139,2.229089315041482,21.629281749859725,1.31127932,-5.583403942272728,-1.17706906280303,0.0,2.91,0.0
mp-629430,Sr8Li16Cr8N24,56,3,61,712.3911560499921,3.645925209195367,12.72127064374986,3.22585148,-6.700031609999999,-0.9602952488095232,0.0,0.9152,0.0
mp-16691,Sr4Li8Ti24O56,92,3,64,1091.8228634225354,3.727362794161203,11.867639819810169,1.55754774,-8.70424322423913,-3.393170181050724,1.0,2.951999999999999,1.0
mp-15845,Sr2Li8N4,14,1,141,194.58666118516555,2.447413232732109,13.899047227511824,0.952944599999999,-6.692535140714286,-0.5568225598809531,0.0,0.6182000000000001,0.0
mp-1101989,Sr4Li4As4,12,3,62,278.47997870771974,4.042408789528388,23.206664892309977,2.65784631,-11.946434766666668,-1.199801943055556,1.0,1.0323,0.0
mp-568385,Sr6Li6Ga6N12,30,4,12,400.72862903648297,4.781051144861461,13.357620967882765,3.04560713,-5.3887494406666665,-0.727548946833332,1.0,2.2221,0.0
mp-29754,Sr2Li2N2,6,1,131,108.55704661742791,3.321404051387783,18.092841102904654,1.74756844,-9.509025566666669,-0.6219861818055551,0.0,0.2574,0.0
mp-13276,Sr2Li2P2,6,2,194,133.068586195327,3.133051646184146,22.17809769922117,2.7438178,-9.979684561666668,-1.134869963214286,0.0,1.343099999999999,0.0
mp-7756,Sr4Li4Sb4,12,3,62,330.98502200206985,4.341096394672895,27.58208516683916,3.687705079999999,-3.595568218333333,-1.018784152777778,1.0,0.6857999999999991,0.0
mp-1208625,Sr2Li2V2F12,18,6,163,258.3087611354896,3.336302864397696,14.350486729749422,2.24920353,-6.258008921666667,-3.57263433537037,0.0,2.6226000000000003,0.0
mp-1218201,Sr1Mg2Ga2N4,9,4,8,115.9838711311696,4.748983220931505,12.887096792352178,5.64113069,-5.721422167777775,-0.7922364849999981,1.0,2.126499999999999,0.0