material_id,composition,nsites,crystal_system,space_group,volume,density,density_atomic,efermi,energy_per_atom,formation_energy_per_atom,is_gap_direct,band_gap,is_oxide
mp-1195323,Cs8Sn12Hg4Se32,56,3,19,2120.861060723037,4.554327601285408,37.8725189414828,2.2251437,-3.878651548214286,-0.869963365040025,1.0,1.203399999999999,0.0
mp-8934,Cs4Sn2As4,10,3,72,406.2913128222016,4.36796181530421,40.629131282220165,2.44471373,-3.456218709,-0.42306429686207,0.0,0.7669,0.0
mp-568403,Cs4Sn2As4Se18,28,4,4,978.3969021946416,4.226051713368852,34.94274650695149,2.33472645,-4.074896322142857,-0.7442552250288641,0.0,0.7742000000000001,0.0
mp-641923,Cs2Sn1Br6,9,0,225,331.5067533175784,4.327556678085349,36.83408370195316,-0.47320015,-3.348238434444444,-1.609659967145594,1.0,1.438899999999999,0.0
mp-608555,Cs2Sn1Cl6,9,0,225,288.8351831267041,3.433579389870279,32.09279812518935,-0.55795634,-14.139066036666668,-1.7082079072222212,1.0,2.59,0.0
mp-27636,Cs2Sn1I6,9,0,225,408.6204302099646,4.656866918458945,45.4022700233294,1.20192082,-2.8264911144444422,-1.163201927145591,1.0,0.293799999999999,0.0
mp-861243,Cs4Sn2O6,12,3,63,257.2365837626113,5.584080292199178,21.436381980217607,2.22752739,-5.342029919999997,-1.8971282515517207,1.0,2.386,1.0
mp-505141,Cs8Sn4S56,68,4,14,1992.2764655826825,2.778619531937065,29.29818331739239,1.79318242,-11.431145817205882,-0.40449423305147,1.0,1.5134,0.0
mp-1103379,Cs4Sn2Se6,12,4,12,495.5154829626344,4.164796105304577,41.292956913552864,0.68792562,-20.750348649166668,-1.100720237031249,1.0,1.723599999999999,0.0
mp-28877,Cs8Sn4Te16,28,3,62,1224.1236073429882,4.8558858382036,43.71870026224958,2.84597168,-3.492951495357143,-0.864558556925287,0.0,0.633,0.0
mp-18160,Cs2Sr1V4O12,19,1,123,371.7068291175007,3.346881665876312,19.56351732197372,-0.56023566,-7.785483106842105,-2.563402076805808,1.0,2.6812,1.0
mp-569879,Cs2Ta6Pb1Cl18,27,6,148,723.5177768820963,5.041975458385857,26.7969546993369,2.88882847,-5.867638436666666,-1.79341851567816,0.0,1.4561000000000002,0.0
mp-15218,Cs4Ta2Ag2S8,16,3,70,554.107188504508,4.092928365477489,34.63169928153175,0.82269855,-5.46099998,-1.3260926510387931,0.0,2.5939,0.0
mp-646007,Cs2Tb6Te7N2,17,4,8,574.786225751724,6.184056931606758,33.81095445598377,3.33591986,-5.702879858235296,-1.6838896450574712,0.0,0.7433999999999991,0.0
mp-1205840,Cs2Tc1Cl6,9,0,225,278.378755804308,3.439015182814313,30.93097286714533,0.02274972,-14.202285888888888,-1.636041284999998,1.0,1.2924,0.0
mp-1079364,Cs2Tc1F6,9,6,164,167.86836061171886,4.726368685697866,18.652040067968763,0.246295699999999,-13.405971224444444,-2.857333918888888,0.0,1.8113,0.0
mp-1206848,Cs2Tc1I6,9,0,225,395.550080084172,4.723804376892929,43.950008898241336,1.32719143,-3.409769293333334,-1.040805984923372,0.0,0.6815,0.0
mp-573763,Cs8Te4,12,3,62,640.9059681586167,4.077192021558062,53.40883067988472,1.23386583,-26.431477753333336,-1.220100983333334,1.0,1.774,0.0
mp-504924,Cs16Te16O40,72,3,61,1570.562821746672,5.083513195532648,21.81337252425933,2.5075251400000003,-5.392910002083334,-1.743757562932632,1.0,2.8746,1.0
mp-505634,Cs4Te6,10,3,36,470.6798386886195,4.576545057818624,47.06798386886195,2.27100842,-26.202443477000003,-0.9087276910000012,0.0,0.5258,0.0
mp-1203081,Cs8Te16O36,60,1,122,1256.345983245707,4.8650203327355,20.93909972076178,2.44482498,-5.603692927166667,-1.675637743231801,1.0,2.405899999999999,1.0
mp-23405,Cs2Te1Br6,9,0,225,340.0543915722945,4.26219008597576,37.7838212858105,-0.09562952,-3.096817772222222,-1.45449107844189,0.0,2.1121,0.0
mp-23465,Cs2Te1Cl6,9,0,225,294.26918964864035,3.420340149633411,32.696576627626705,-0.00621166,-13.95263417,-1.447215981666665,0.0,2.7815000000000003,0.0
mp-540957,Cs2Te1I6,9,0,225,417.54632418324377,4.592671626805513,46.39403602036042,1.21245149,-2.637432228888886,-1.070394815108554,0.0,1.3877000000000002,0.0
mp-669353,Cs8Te4O16,28,3,62,667.4548489688699,4.551886565081376,23.83767317745964,-0.11475191,-5.33280672142857,-1.7969345708538582,1.0,2.846899999999999,1.0
mp-640389,Cs8Th4P12S36,60,5,2,1727.2985846132967,3.381473842959487,28.788309743554944,2.14872259,-5.407257877,-1.225826538715926,0.0,2.285199999999999,0.0
mp-1204762,Cs16Th16P16Se104,152,3,61,5004.608776760513,4.826562837055105,32.92505774184548,2.26727037,-5.065221502697368,-1.227249507911305,0.0,1.6041999999999992,0.0
mp-10488,Cs4Ti2Ag4S8,18,1,132,522.7814447441749,4.178013146940504,29.043413596898606,2.1021276,-4.773329093888889,-1.223244562330778,0.0,1.6053000000000002,0.0
mp-10489,Cs4Ti2Cu4Se8,18,1,132,508.47692004534247,4.941739748283294,28.248717780296804,2.6260982,-4.7125449800000005,-1.168822045779853,0.0,1.3642,0.0
mp-16805,Cs4Ti2Ge6O18,30,2,176,489.0441875084008,4.587919759879522,16.30147291694669,3.5943538,-6.974579212,-2.433767227509579,0.0,2.9569,1.0
mp-1226157,Cs2Ti1W3O12,18,6,166,272.7609705852426,6.436061804368826,15.1533872547357,3.73088548,-8.504974010555557,-2.507120126813539,0.0,2.8344,1.0
mp-680170,Cs6Ti6S27,39,6,146,1100.4524801895534,2.943060576606208,28.2167302612706,2.14813859,-5.54250794076923,-1.323109842190537,0.0,0.8114999999999991,0.0
mp-27828,Cs2Ti1Cl6,9,0,225,277.04734215873464,3.155059911230977,30.783038017637185,-0.71263014,-13.180390786666669,-2.06158007574074,0.0,2.2291,0.0
mp-1195388,Cs4Ti2Cu6F24,36,4,14,600.2790201416755,4.051473757920147,16.67441722615765,-0.28653685,-5.194079180277778,-2.695451643202426,0.0,0.3339,0.0
mp-1206662,Cs2Ti1I6,9,0,225,397.99618364150496,4.485604304598483,44.22179818238944,1.22989296,-3.471810146666667,-1.376752052515965,0.0,0.8643000000000001,0.0
mp-1203715,Cs4Ti2P8O26,40,5,2,632.742985096832,3.388377840128588,15.818574627420798,2.77661122,-7.6094961435,-2.8246544273107563,1.0,2.691,1.0
mp-3247,Cs4Ti2S6,12,3,63,378.619995654888,3.595214076971568,31.551666304574,1.96318898,-5.308415790833332,-1.620661480857278,0.0,1.2724,0.0
mp-1113150,Cs2Tl1Ag1F6,10,0,225,204.3449795764139,5.623728809606423,20.43449795764139,0.31667793,-4.213349169,-2.362001250431036,0.0,0.805299999999999,0.0
mp-1112112,Cs2Tl1As1Br6,10,0,225,395.9075343730901,4.297186140169187,39.59075343730901,0.86213521,-3.289725431,-1.421802531014368,1.0,1.2314,0.0
mp-1112544,Cs2Tl1As1I6,10,0,225,478.7250597001039,4.531964694635132,47.87250597001039,1.66666667,-2.859277701,-1.059115153014369,1.0,1.0046,0.0
mp-1199662,Cs16Tl8Br40,64,3,62,2758.6949238306293,4.18805109535332,43.10460818485358,0.40261025,-3.076567005312499,-1.53004701376796,1.0,1.276,0.0
mp-541696,Cs8Tl4Cl20,32,3,62,1068.8357791307494,4.023560299652399,33.40111809783592,-0.6527377,-3.445728556875,-1.766960899705461,0.0,1.809,0.0
mp-504603,Cs2Tl1Fe1F6,10,0,225,206.6623873942509,5.142659030379203,20.666238739425093,0.27985477,-5.138566924,-2.7245106522643683,0.0,2.9057,0.0
mp-996944,Cs2Tl1In1Br6,10,0,225,410.9472562190818,4.301130798573819,41.09472562190818,0.05294794,-3.253867587,-1.577039565931035,0.0,1.8255,0.0
mp-1112490,Cs2Tl1In1Cl6,10,0,225,356.55708452003284,3.715147519224946,35.65570845200328,0.1556318,-3.6529785919999993,-1.849192811931035,0.0,2.7015,0.0
mp-1112340,Cs2Tl1Rh1F6,10,0,225,207.59524131651744,5.495983358197139,20.75952413165174,1.22990666,-4.72621573,-2.422730792264368,0.0,1.9056,0.0
mp-1112339,Cs2Tl1Ru1F6,10,0,225,211.13566321507432,5.389388295338034,21.11356632150743,2.16162413,-4.899233834,-2.404739429264368,0.0,0.5579000000000001,0.0
mp-572551,Cs4U2Br8O4,18,4,14,657.6542786348285,4.319946975383021,36.53634881304603,-0.7256142600000001,-5.761918867777777,-2.47846627881226,0.0,1.9545,1.0
mp-541275,Cs2U1Cl4O2,9,4,12,282.1953084725205,3.987540841168678,31.3550342747245,-0.43711851,-6.075502226666667,-2.698006853256704,0.0,2.3217,1.0
mp-1197866,Cs4U2Si12O30,48,3,36,842.0057690411124,3.598508705495019,17.541786855023176,4.66286788,-8.215845936041667,-3.220900585804598,0.0,0.270799999999999,1.0
mp-581584,Cs16U8Si16O64,104,3,73,1979.2645458321608,4.617718703147095,19.031389863770777,1.10005271,-8.08609686201923,-3.198274611966179,1.0,2.2088,1.0
mp-548479,Cs2U2O7,11,4,12,218.3136219379037,6.494672145364342,19.8466929034458,2.10590244,-8.641752183636335,-3.274979256755456,1.0,1.5078,1.0
mp-562366,Cs2U3Te2O14,21,5,2,428.3570348715512,5.656203767277672,20.39795404150244,1.63241883,-8.16800869,-2.870472926792555,0.0,1.8635,1.0
mp-1228671,Cs2U4Nb4O23,33,4,8,580.3193295967957,5.601344976157735,17.58543423020593,0.85801256,-9.38277932939394,-3.286115133766979,0.0,1.838499999999999,1.0
mp-1196336,Cs8U4As8O36,56,3,59,1151.1030637106142,4.602801893333032,20.55541185197525,0.15971434,-7.251990088035714,-2.467757283700739,0.0,2.1136,1.0
mp-581443,Cs24U12Mo12O84,132,3,29,2847.217655055995,4.981415641066679,21.56983072012117,1.82264398,-8.062206448333335,-2.735957148725184,1.0,1.9356,1.0
mp-2991,Cs2U1O4,7,1,139,144.21224791468762,6.538392007104804,20.601749702098232,2.41630776,-7.718702774285715,-3.018815749901478,0.0,1.8211,1.0
mp-561356,Cs8U4P8O36,56,3,59,1047.0698016069916,4.502548482154912,18.69767502869628,0.64077206,-7.897072034642858,-3.006360517042576,0.0,2.1222,1.0
mp-541679,Cs8V4P8O32,52,3,62,971.3643629303303,3.464763941018194,18.68008390250636,3.54911837,-7.3900274425,-2.6735277270073903,1.0,2.9895,1.0
mp-1192739,Cs4V6O16,26,1,100,483.7078970512223,3.753097595232873,18.60414988658547,0.48792782,-7.733396746923077,-2.452522793793103,1.0,2.1336,1.0
mp-560444,Cs4V8O18,30,1,84,501.7020221266399,4.061611902194921,16.723400737554662,2.51157135,-7.983784118666668,-2.471568887620692,0.0,0.097099999999999,1.0
mp-8684,Cs4V2Ag2S8,16,3,70,525.5225312412632,3.49396947684366,32.84515820257895,1.08833407,-5.01590259625,-1.228872951372126,0.0,1.3867,0.0
mp-27239,Cs4V2F12,18,3,63,326.6006178954938,4.380060820815353,18.14447877197188,-0.69025418,-12.42566664,-3.19648337,0.0,1.7856,0.0
mp-17361,Cs8W4S16,28,3,62,971.7505091506088,3.950164671846987,34.705375326807456,0.36337488,-20.30753925892857,-1.204011157678573,1.0,2.1616,0.0
mp-505633,Cs4Zn6S8,18,3,72,462.9099168800301,4.23500423926336,25.71721760444612,1.51115815,-13.271635068888887,-1.150667275138889,1.0,2.694499999999999,0.0
mp-1199216,Cs8Zn4Bi8S20,40,3,62,1202.4449917747036,5.023996150464736,30.06112479436759,2.2900152,-22.54928665325,-0.918581502656249,0.0,1.7343000000000002,0.0
mp-1194749,Cs8Zn4Ge12Se32,56,3,19,1937.492730387272,4.048113420248701,34.598084471201275,0.81034573,-4.120053944821429,-0.912048649325739,1.0,1.4028,0.0
mp-504601,Cs16Zn8O16,40,4,14,956.8627619384324,5.042636176229599,23.92156904846081,1.51150937,-4.121036076749999,-1.526711924612068,0.0,1.979,1.0
mp-1194701,Cs8Zn4Sn12Se32,56,3,19,2061.3106229849727,4.250306888928319,36.8091182675888,1.15318471,-4.018224131785714,-0.9416736934328812,1.0,1.2553,0.0
mp-1078823,Cs2Zr1Ag2Te4,9,3,21,338.7113668996562,5.310268392359,37.63459632218402,2.54107579,-4.16473185,-0.9844257721455932,0.0,1.483099999999999,0.0
mp-1226158,Cs2Zr1W3O12,18,4,5,300.2114676768858,6.087383906279506,16.6784148709381,0.59346045,-8.589833927222223,-2.555746231628352,0.0,2.9771,1.0
mp-571150,Cs2Zr7C1I18,28,6,148,1034.4657686324997,5.137760805041335,36.94520602258927,3.88890435,-4.821269001785716,-1.310170712028943,0.0,0.1184,0.0
mp-1206511,Cs2Zr1I6,9,0,225,409.2922214452346,4.537709952826916,45.47691349391496,0.81901217,-3.67596603222222,-1.508440314367814,0.0,1.839799999999999,0.0
mp-9856,Cs4Zr2Se6,12,3,63,456.0576720908783,4.324974494889575,38.00480600757319,1.20036605,-20.953279745,-1.6363833120312492,1.0,1.3691,0.0
mp-1228215,Cs3Cr20Se32,55,5,2,1244.4824609853483,5.291060878025592,22.626953836097243,3.42655607,-6.497681317636364,-0.903971328617555,0.0,0.002099999999999,0.0
mp-1214812,Cs6Na52In96,154,0,223,4516.191908656169,4.785586681259741,29.32592148478032,4.6135691,-2.337540178766233,-0.129111443244512,1.0,0.008099999999999,0.0
mp-1214772,Cs3Se2O8,13,4,12,266.91049974055903,4.259320804434543,20.531576903119927,-0.34542188,-5.387777837692307,-1.5955129372040782,0.0,0.4225,1.0
mp-1199633,Cs12Ag4As16Se32,64,4,15,2375.873824150888,4.020034588575883,37.12302850235762,1.03593521,-4.01341644078125,-0.7500006694926361,1.0,1.604299999999999,0.0
mp-1198053,Cs6Ag4Sb6S16,32,4,11,1017.9816624685092,4.033168912009277,31.81192695214091,2.06143814,-4.17485093875,-0.8058704182686771,0.0,1.131599999999999,0.0
mp-1226259,Cs3Ag9Sb4S12,28,1,82,763.6704627540192,4.873632904496218,27.27394509835783,2.56909745,-3.957020514285714,-0.5824958147844811,0.0,1.5938999999999992,0.0
mp-582723,Cs24Al8As16,48,4,14,1985.213680473844,3.851307215617212,41.35861834320507,2.4568346,-3.111830536458332,-0.476871602119253,0.0,0.969,0.0
mp-562441,Cs12Al4O12,28,4,14,663.9002966537626,4.739210837805729,23.71072488049152,1.85375895,-5.201715280714284,-2.156945058423644,1.0,2.2572,1.0
mp-619651,Cs24Al8P16,48,4,14,1862.9267665576697,3.477342350851155,38.81097430328479,2.88924426,-17.279527462291664,-0.6025924699503941,0.0,1.1821,0.0
mp-1193748,Cs12Al4Te12,28,4,14,1304.3107147033063,4.11724698299171,46.58252552511809,1.53820603,-23.783622920357143,-1.168032883214282,0.0,2.1588,0.0
mp-1201199,Cs12As4P12Se36,64,4,14,2126.835870669198,3.988721961901901,33.23181047920622,1.23855036,-4.256599263437501,-0.8126193185304901,0.0,1.749499999999999,0.0
mp-573812,Cs12As44,56,4,15,2027.7020125209888,4.005710412372885,36.208964509303385,1.52372775,-4.146344319464286,-0.28239570742611,0.0,1.4052,0.0
mp-1541714,Cs3As2Cl9,14,6,164,434.59293477647054,3.315158349482033,31.04235248403361,2.87122369,-3.7529627199999993,-1.7028867931403942,1.0,2.6409,0.0
mp-573631,Cs24As56,80,3,61,3042.995595440295,4.030122931638817,38.037444943003685,1.46756867,-3.91864071175,-0.377161667896553,0.0,1.5702999999999991,0.0
mp-1201774,Cs12As4Se16,32,3,62,1262.1523355445192,4.154677532149963,39.44226048576623,0.72710355,-3.7431742065625,-1.070961562292565,1.0,1.2415,0.0
mp-569984,Cs12Au8Br44,64,4,14,2560.111380647289,4.336914902603061,40.00174032261389,-0.8496414600000001,-2.9039996584375,-1.199117871185345,1.0,1.1515,0.0
mp-505212,Cs6Au2O2,10,2,194,378.5473320676773,5.366422164251121,37.854733206767726,1.21020244,-3.05530406,-0.866148916793104,0.0,1.3261,1.0
mp-572441,Cs36Au12O24,72,4,14,2211.0276517450125,5.656862904085029,30.708717385347395,2.01521676,-3.859074227638889,-1.210118107466476,1.0,1.8333,1.0
mp-1196535,Cs6B6Se20,32,5,2,1012.680840527176,4.003437044609971,31.64627626647425,1.37869628,-4.4460532025,-0.8384767774939391,0.0,1.7936,0.0
mp-573658,Cs6B2As4,12,4,15,477.1902634420508,3.893024362004402,39.76585528683757,1.52110264,-3.4617778791666662,-0.337849621355363,0.0,1.4845000000000002,0.0
mp-1019608,Cs24B8O24,56,3,55,1277.2631308891623,4.758543738306041,22.80827019444933,1.95212911,-5.594600747857141,-2.13071396259031,0.0,2.6073,1.0
mp-9675,Cs6B2P4,12,4,15,449.0472849392726,3.486948848909138,37.42060707827272,1.83936388,-17.333937344166667,-0.554626373908727,0.0,1.6955,0.0
mp-30222,Cs12B4S12,28,4,14,958.0461800106264,3.5061847581648573,34.21593500037952,1.64202552,-4.363153700357141,-1.2462389597331671,0.0,2.545,0.0
mp-635413,Cs3Bi1,4,0,225,207.19487266897136,4.870314552127646,51.798718167242846,2.29936917,-33.92275759,-0.465849403749999,0.0,0.178999999999999,0.0
mp-1200951,Cs12Bi8P12S48,80,4,14,2466.5979915762937,3.485555370997631,30.832474894703672,2.13929256,-4.7581792136250005,-0.937642377769704,0.0,1.9768,0.0
mp-27544,Cs3Bi2Br9,14,6,164,553.1314722726557,4.610617677493076,39.50939087661827,-0.29847766,-3.406577960000001,-1.6039693781403952,0.0,2.599599999999999,0.0
mp-669458,Cs6Bi4I18,28,4,15,1362.8720035122276,4.773291673624063,48.6740001254367,0.85873557,-2.941833981428573,-1.211825776711825,0.0,2.3796,0.0
mp-581738,Cs12Bi4Se12,28,0,198,1235.6490229706226,4.539971048447071,44.1303222489508,1.54798675,-26.3838199825,-1.132060919955356,0.0,2.034799999999999,0.0
mp-1205638,Cs6Br2O2,10,2,194,379.5776741698312,4.327627694375486,37.95776741698312,1.26028733,-3.4093318509999992,-1.5475638007931032,0.0,1.551499999999999,1.0
mp-1184118,Cs6Cd2H10,18,1,140,447.7653504989168,3.828413966943704,24.875852805495377,0.21724229,-12.780809555555557,-0.257930811527777,0.0,2.7222,0.0
mp-1214351,Cs12Ce4Cl24,40,4,15,1497.4289437504576,3.333657283346723,37.43572359376144,2.27171344,-16.71238604375,-2.4043239292500003,0.0,0.460399999999999,0.0
mp-29287,Cs6Co2Br10,18,1,140,712.4684331900082,3.995583409258842,39.581579621667125,0.34240917,-3.648991590555555,-1.644315800996168,0.0,0.6983,0.0
mp-1105622,Cs6Co2Cl10,18,1,140,624.5557289958278,3.376161218103819,34.697540499768216,0.72556402,-15.094179288333336,-1.8362032197222231,0.0,0.7602,0.0
mp-1206497,Cs3Co1F6,10,0,225,197.9824993101024,4.794517219232629,19.79824993101024,-1.35457843,-4.795142318000001,-2.661095949896553,0.0,2.912,0.0
mp-569323,Cs12Co4I20,36,3,62,1746.8133901206477,4.152920097389145,48.52259417001799,0.92143701,-3.22724806611111,-1.285313343218389,1.0,0.9287,0.0
mp-23451,Cs6Cr4Br18,28,2,194,961.1932516225604,4.221670542583215,34.32833041509144,0.251157199999999,-4.251071339285711,-1.625175163140391,1.0,1.0085,0.0
mp-1193179,Cs6Cr4Cl18,28,2,194,835.6387934263898,3.266021229129656,29.844242622371063,1.3546973,-13.332135969642858,-1.843279265535713,1.0,0.2688,0.0
mp-621938,Cs6Cr4I18,28,2,194,1195.9612970216365,4.567598757763159,42.71290346505844,1.620391479999999,-3.722610926785713,-1.169315127783251,0.0,0.7209000000000001,0.0
mp-582423,Cs12Cu8Br20,40,3,62,1453.0631954135974,4.22980607842106,36.32657988533994,1.02669619,-3.383913554499997,-1.473205681896549,0.0,2.131,0.0
mp-582024,Cs12Cu8Cl20,40,3,62,1283.500955463547,3.638425881510193,32.08752388658867,1.355608189999999,-14.32608503975,-1.547970491000001,0.0,2.3072,0.0
mp-23481,Cs12Cu8I20,40,3,62,1743.9347446679678,4.419372852984223,43.5983686166992,1.38757019,-3.053944214500001,-1.199703301896553,1.0,2.4429,0.0
mp-16543,Cs12Cu20O16,48,4,14,1104.28667229704,4.69427988308852,23.005972339521666,1.99371417,-4.666480871874992,-1.082163365122118,0.0,1.6896,1.0
mp-1194135,Cs6Er4I18,28,2,194,1335.46704675807,4.663735839268205,47.69525166993107,0.73553811,-3.565278450357141,-1.738458174211821,1.0,2.8905000000000003,0.0
mp-1226424,Cs6Er10P12S48,76,4,9,2145.3437541067583,3.3908485686808,28.2282072908784,2.03340765,-5.523083703026316,-1.381610083732174,1.0,2.2701,0.0
mp-1178430,Cs12Er4O12,28,4,14,741.3021630632205,5.501276677171723,26.47507725225788,3.47820295,-5.380610788214286,-2.218391568780788,0.0,2.2999,1.0
mp-1229260,Cs12Eu4Si24O60,100,4,14,1776.7579063056778,3.585774041716581,17.76757906305678,1.87865401,-7.8826864527,-3.091351737458621,0.0,0.6834,1.0
mp-581532,Cs12Fe16P20O80,128,3,56,1930.575457660518,3.774073846526025,15.082620762972796,0.9948478,-7.515340221953125,-2.432821307021243,1.0,2.4999,1.0
mp-1193066,Cs12Fe4O12,28,4,14,664.007833773884,5.027168253663522,23.71456549192443,3.97956805,-5.266945838214285,-1.547254847352217,0.0,2.1129,1.0
mp-1194302,Cs12Fe4Se12,28,3,64,1089.584235371677,4.215058721039797,38.913722691845614,1.49306192,-4.164132777857143,-1.066748727285254,0.0,0.045,0.0
mp-541678,Cs24Ga8As16,48,4,14,1974.399517148527,4.159978075439964,41.13332327392765,1.80870006,-2.967942147499999,-0.452563181077586,0.0,0.695199999999999,0.0
mp-1178422,Cs6Ga2O6,14,4,12,327.3673406397602,5.239158769004635,23.383381474268585,4.34431649,-4.7291800417857175,-1.78690693485222,0.0,2.877,1.0
mp-1201960,Cs24Ga8P16,48,4,14,1912.010152329634,3.685035387833381,39.83354484020071,2.06827579,-3.156277602083333,-0.392448304708538,0.0,0.9444999999999992,0.0
mp-542448,Cs12Ga4Se12,28,4,14,1083.7901198021286,4.3226463248542,38.70678999293317,0.79799445,-19.81340001,-1.284426346741071,0.0,2.3562,0.0
mp-1226537,Cs6Ge4Sb6O26,42,3,63,805.9130095718464,4.604139808114644,19.188404989805868,1.53255103,-6.2901732485714295,-2.067293000665025,0.0,1.7817,1.0
mp-510341,Cs6Ge8Au2,16,3,59,589.0861288921735,4.996352576590923,36.817883055760845,2.32693519,-3.330260143749999,-0.269019377370689,0.0,0.9316,0.0
mp-1204552,Cs12Ge36H24N8,80,4,14,2314.566617076263,3.11805722863275,28.932082713453287,1.24114641,-4.304659886125,-0.235723009698275,1.0,1.1855,0.0
mp-582708,Cs12Ge4As4Se20,40,4,14,1542.6839754971684,4.051890691746625,38.56709938742921,1.586727499999999,-3.975451838749999,-1.025787790068427,1.0,1.842499999999999,0.0