material_id,composition,nsites,crystal_system,space_group,volume,density,density_atomic,efermi,energy_per_atom,formation_energy_per_atom,is_gap_direct,band_gap,is_oxide
mp-1196887,Ba8Si2Sb4Se22,36,3,36,1111.1223711683635,5.049734973449363,30.86451031023232,3.00002276,-4.724050100555555,-1.401036404765624,0.0,0.868599999999999,0.0
mp-2755271,Ba8Sn6O20,34,1,139,517.1909316664813,6.841540910646369,15.211497990190628,3.68017929,-16.610019052058824,-2.496660382647061,1.0,1.404399999999999,1.0
mp-1228585,Ba4Ta10Co1O30,45,3,44,622.7976041002285,7.726020996843608,13.839946757782856,1.90207924,-9.603174637555554,-3.338343036296295,0.0,2.4312,1.0
mp-1228547,Ba4Ta10Fe1O30,45,3,44,626.0253373984401,7.677994819817104,13.91167416440978,2.25247668,-9.647202176,-3.352668252740741,0.0,2.040699999999999,1.0
mp-29298,Ba8Ti26O60,94,3,64,1225.1215865279116,4.4770765473904754,13.033208367318208,1.889018699999999,-9.032192111489362,-3.526742619432624,0.0,2.529499999999999,1.0
mp-558894,Ba8Ti4Pt2O20,34,3,64,529.2542507408859,6.2757675690395605,15.566301492378996,2.83198279,-7.655823756470588,-3.007728040980392,0.0,1.9973,1.0
mp-15503,Ba32Ti8As32,72,0,218,2498.476423072692,4.7685809744612975,34.701061431565165,2.13678901,-4.907698490138888,-1.101933833842593,1.0,1.0537,0.0
mp-15502,Ba32Ti8P32,72,0,218,2338.596812599442,4.096011687036275,32.48051128610336,2.52464853,-5.206705129166668,-1.069673364933862,1.0,1.0636,0.0
mp-1229229,Ba8U16As4O66,94,3,31,1601.9329225264255,6.491844931475272,17.041839601344954,1.9000859,-9.133241183723404,-3.37515313968085,0.0,1.5822999999999992,1.0
mp-570453,Ba8W2N8Cl4,22,4,11,569.2363536844214,5.017942932100078,25.87437971292825,2.03522916,-6.86503386227273,-1.621013265000002,0.0,2.2089,0.0
mp-2745379,Ba10Ga12H4,26,6,165,765.9553433070326,4.799753138597634,29.459820896424333,3.4329447,-16.555426581153846,-0.5504413175,0.0,0.6019000000000001,0.0
mp-643683,Ba10Ga12H4,26,6,158,763.7718672683998,4.813474704445513,29.375841048784608,2.25373664,-3.164901040384615,-0.5069176778846151,0.0,0.373499999999999,0.0
mp-1194622,Ba20I8O48,76,3,62,1297.09182741766,5.798989423800125,17.066997729179736,2.36691638,-6.089505597105263,-2.299061808157895,1.0,2.4411,1.0
mp-1195424,Ba20In16Sb24,60,3,59,2306.338542620392,5.404144626825615,38.438975710339854,4.24512608,-3.8293020505,-0.8022635762777771,1.0,0.4508,0.0
mp-28908,Ba10Ru4O20,34,2,194,560.6619545226288,6.212377644999366,16.49005748595967,2.9195652,-7.007841569117649,-2.441765696764707,0.0,0.228099999999999,1.0
mp-28926,Ba10Ti4N12,26,5,2,532.9542191867505,5.398986526298691,20.498239199490403,2.89201182,-6.942320743846151,-1.141126497435894,0.0,1.4748,0.0
mp-1214930,Ba20Al4Ru8O44,76,3,62,1245.4213238591665,5.8225867480279465,16.387122682357454,3.42803539,-7.178381959999998,-2.635391082894735,0.0,0.0786,1.0
mp-1214675,Ba10Cr6Cl2O24,42,2,176,812.1872445713719,4.37557116634908,19.33779153741362,2.53876942,-7.412287363095238,-2.660949650238096,1.0,1.0844,1.0
mp-1214531,Ba10Cr6O24F2,42,2,176,773.7117011539592,4.522532206997882,18.42170717033236,1.53781331,-7.517394818571428,-2.76294712595238,1.0,1.0051,1.0
mp-1200170,Ba10Cr6O26,42,4,4,775.9772738858148,4.496492720693283,18.475649378233687,2.23270667,-7.512904037619047,-2.613974981666667,0.0,0.699299999999999,1.0
mp-29082,Ba10Cr2N10,22,4,12,556.5656283249668,4.825375810999304,25.29843765113485,2.88617922,-6.424151290909092,-0.8842139368181821,0.0,0.1251,0.0
mp-559141,Ba15Cu12Cl3F51,81,2,189,1337.6428444374933,4.838616331964485,16.514109190586336,0.93127282,-5.323697671481481,-3.08755935462963,0.0,0.106199999999999,0.0
mp-1214489,Ba5Er8Ni4O21,38,1,87,536.348564559016,8.035587852563255,14.11443590944779,2.88152397,-7.70780953131579,-3.150852873289473,1.0,2.4221,1.0
mp-1215133,Ba20Ga4Ru8O44,76,3,62,1264.7595946873669,5.958024903182951,16.641573614307458,3.34873435,-6.9843047261842095,-2.479075944210526,0.0,0.0642,1.0
mp-1228258,Ba10Li4Te6O30,50,1,87,702.2293446903601,6.258367434397753,14.0445868938072,3.0640065,-6.3237438542,-2.441261726666666,1.0,1.211199999999999,1.0
mp-557816,Ba10Li4W6O30,50,2,186,720.5008405512312,6.877357091118886,14.410016811024626,2.38167621,-7.840251648800001,-2.779990600866666,1.0,2.291499999999999,1.0
mp-1228411,Ba10Li4U6O30,50,1,87,781.5783921908924,7.030693826766965,15.631567843817848,2.92084727,-8.2495583644,-3.389303742866665,0.0,1.2725,1.0
mp-560883,Ba10Mn6Cl2O24,42,2,176,773.7876098427345,4.630591561652127,18.423514520065105,1.2089368,-7.177180885714286,-2.49599062684729,1.0,1.7323,1.0
mp-1214575,Ba10Mn6O24F2,42,2,176,769.2935710274246,4.58660712621482,18.316513595891063,0.71307486,-7.259533331428573,-2.575233092799672,1.0,1.8397,1.0
mp-759718,Ba10Mn10O28,48,3,40,665.8734751937594,5.911828500566235,13.872364066536656,2.52491486,-7.686957222499999,-2.492107004568965,0.0,1.0239,1.0
mp-1229142,Ba10Na4Ru6O28,48,4,4,762.2777945610339,5.48874420779035,15.880787386688208,3.00755337,-6.837612556875,-2.280405142406608,1.0,0.1436,1.0
mp-1228715,Ba10Nb6O6F40,62,2,176,1017.8491192283244,4.546180606585351,16.4169212778762,-0.949828,-6.68297230435484,-3.682336164516129,0.0,0.7117,1.0
mp-3563,Ba5Nb4O15,24,6,164,353.45760053425505,6.09916822830891,14.727400022260626,1.9354784,-8.447367847916668,-3.271554933958334,0.0,2.5999,1.0
mp-19460,Ba5Nd8Mn4O21,38,1,87,617.3120805117488,6.445957335709667,16.24505475030918,3.65650064,-8.12482620868421,-3.169686828861161,1.0,1.9202999999999992,1.0
mp-554501,Ba10Os6Cl2O30,48,2,185,853.3132454740321,5.965506378983942,17.777359280709003,2.46557632,-7.335777053541666,-2.363071434166666,0.0,0.6088,1.0
mp-628618,Ba10Os6N2O36,54,2,185,897.1658558101675,5.772206454463526,16.6141825150031,2.48560801,-7.409386760370371,-2.199069989074075,0.0,0.6002999999999991,1.0
mp-1105231,Ba10P8,18,3,64,600.1986393214199,4.48490456719081,33.34436885119,3.9474605,-4.483248874999983,-1.010274563730141,0.0,0.9422,0.0
mp-29787,Ba15Pt6O27,48,6,150,815.7946760958519,7.45475117677773,16.99572241866358,3.09924655,-6.451364925416667,-2.309565526354167,0.0,1.6295000000000002,1.0
mp-556721,Ba10Re6Br2O30,48,2,185,860.9219648061186,6.037700248972867,17.935874266794137,0.92453556,-7.889627093125,-2.773144637604167,0.0,2.54,1.0
mp-556647,Ba10Re6Cl2O30,48,2,185,850.7402979037379,5.936433867775583,17.723756206327874,0.98163771,-7.916447550625,-2.7911485840625003,0.0,2.5265,1.0
mp-1214601,Ba10Re6I2O30,48,2,185,872.881670944586,6.133799313977271,18.185034811345545,3.64088463,-7.849905728541667,-2.738128853020833,0.0,1.9989,1.0
mp-555095,Ba10Re6N2O36,54,2,185,889.8949297915688,5.774327147639443,16.4795357368809,1.06242727,-7.905113393148149,-2.55915809101852,0.0,2.306499999999999,1.0
mp-698206,Ba10Re6O32,48,2,185,846.4894876518973,5.8899214512579,17.635197659414526,0.8720849700000001,-7.939905288541666,-2.685463896770834,1.0,0.5103,1.0
mp-558725,Ba10Ru4Br4O18,36,2,194,791.3738537392977,5.004769074426473,21.982607048313824,2.04613925,-6.677162481944445,-2.457761265555556,0.0,0.4718,1.0
mp-10089,Ba10Sb8,18,3,64,757.0565238134271,5.148712487608282,42.058695767412615,3.37409542,-4.03895163444444,-1.137742783333328,0.0,0.264899999999999,0.0
mp-19471,Ba5Sm8Mn4O21,38,1,87,599.0527973555656,6.778101656142529,15.764547298830674,3.33056175,-8.158039166315788,-3.213333743861161,1.0,1.9766999999999992,1.0
mp-1214595,Ba5Tm8Ni4O21,38,1,87,530.5852282685119,8.164814609418208,13.962769164960838,2.88709065,-7.703923530263158,-3.16490736276316,1.0,2.3991,1.0
mp-1183410,Ba10V10O28,48,4,5,728.7424842934679,5.310745127113748,15.182135089447248,4.58784981,-8.038175460833333,-2.8595979975,1.0,1.324899999999999,1.0
mp-1228122,Ba6Bi2Te3O18,29,3,71,478.1673678144555,6.642303956607642,16.488529924636396,3.30372099,-6.440887887586207,-2.379262576206897,0.0,2.0681,1.0
mp-15387,Ba6Cu11F34,51,5,2,690.4075580689254,5.216579545595213,13.537403099390694,0.8494007100000001,-5.045211655294124,-2.659405699215693,1.0,0.2531,0.0
mp-1229259,Ba12Gd2Re6O36,56,4,12,862.4108756162934,7.038803094243852,15.400194207433811,1.92488791,-8.304911560714286,-2.876425396696429,0.0,1.938899999999999,1.0
mp-1215063,Ba12Gd4Fe8O30,54,4,13,920.2974177583552,5.780536212191125,17.042544773302875,4.21515723,-8.177274007407407,-2.704474228333334,1.0,2.1756,1.0
mp-1228690,Ba12La4Fe8O30,54,4,9,880.9222081723998,5.900595156101719,16.31337422541481,5.24334403,-7.497218047037037,-2.701463833518519,0.0,2.396199999999999,1.0
mp-16928,Ba6Lu2W3O18,29,6,166,439.0332401427262,7.615227472090026,15.139077246300904,2.15659937,-8.236967478275862,-3.116453225632183,0.0,2.9903,1.0
mp-697671,Ba6Mg7H26,39,3,71,517.2622105147458,3.275425282315439,13.2631336029422,0.71706958,-3.3355986738461523,-0.484279003269229,0.0,2.9959,0.0
mp-569168,Ba12Na2Cu6Te28,48,2,193,1624.294196842951,5.774009837235861,33.83946243422814,4.21252591,-4.11928365125,-1.237638945613026,0.0,0.6019999999999991,0.0
mp-583297,Ba24Nb16S52O12,104,3,62,2837.9948104455902,3.886138294255526,27.288411638899905,2.43973901,-6.754929852211538,-2.117944190961538,1.0,2.3692,1.0
mp-1228695,Ba12Nd4Fe8O30,54,4,9,890.4672742515856,5.877151841456913,16.490134708362696,2.26127363,-7.465011140555555,-2.681690976851851,0.0,2.3557,1.0
mp-1228608,Ba12Pr4Fe8O30,54,4,9,894.0335538377697,5.828935708853253,16.55617692292166,2.27298184,-7.460375761851852,-2.675031596234568,0.0,2.368999999999999,1.0
mp-570423,Ba12Pr6I38,56,4,15,2357.3897974076367,5.153187515241578,42.096246382279226,4.27196977,-3.865827788035716,-1.906666941607144,1.0,1.0187,0.0
mp-16094,Ba24Si100,124,0,213,2842.8849149399643,3.565600318115223,22.92649124951584,6.02423767,-4.932573431774193,-0.185902451451613,0.0,0.043199999999999,0.0
mp-1196224,Ba24Sn24Se52,100,3,19,3269.615981604411,5.206075344622927,32.69615981604411,3.93730347,-4.7086236707,-1.46789847151875,1.0,9.999999999976698e-05,0.0
mp-1204773,Ba12Sn14S40,66,4,15,1899.2235825078344,4.015307072948397,28.776114886482336,2.549171089999999,-5.054459762727273,-1.346943278636363,1.0,1.3643,0.0
mp-1228124,Ba6Ti5Pt1O18,30,6,156,413.8203983540239,6.205127003742556,13.794013278467464,3.12908118,-8.105652185333334,-3.234794147555556,0.0,2.0101,1.0
mp-555781,Ba12Ti10S30O2,54,3,20,1286.0565566159848,4.029203227292145,23.81586215955528,3.90918352,-6.473844353703703,-2.102930863302469,1.0,0.696499999999999,1.0
mp-1228593,Ba12Y2Re6O36,56,4,12,858.1162963366921,6.80952465609354,15.323505291726644,1.91862081,-8.042322923035714,-2.884087856875001,0.0,1.9671,1.0
mp-1196872,Ba12Y4Co8O30,54,4,13,879.2183485874804,5.580962431652299,16.281821270138526,3.29832255,-7.299560093703702,-2.585296590185184,0.0,1.209299999999999,1.0
mp-1198058,Ba12Y4Fe8O30,54,4,13,894.5862494955468,5.439229619153782,16.56641202769531,4.30504702,-7.646792409074073,-2.734513425555554,0.0,2.4647,1.0
mp-16663,Ba12Y4Ti8O34,58,2,194,936.647154860532,5.195284338903919,16.149088876905722,2.09923881,-8.365232755344827,-3.529738348735632,1.0,2.6243,1.0
mp-562764,Ba14B8S26,48,4,15,1274.0162889548762,3.705217457371726,26.54200601989325,1.86209067,-5.672727593333335,-1.758183174965278,0.0,2.5225,0.0
mp-583221,Ba14B8Se26,48,4,15,1433.274094533001,4.706115102668259,29.85987696943752,1.48521101,-5.108297910625001,-1.5417462075889752,0.0,2.1858,0.0
mp-556409,Ba7Ca2Mn5O20,34,6,166,526.327088321909,5.161897597834486,15.480208480056143,2.372734,-7.374778290000001,-2.60379826351927,0.0,0.7955000000000001,1.0
mp-707874,Ba14Cu6H34,54,6,159,907.6817787333254,4.277430999608264,16.808921828394915,1.15249989,-3.598453043888889,-0.507776227268518,0.0,1.4921,0.0
mp-22484,Ba7Mn1Fe6F34,48,4,12,770.6276881092191,4.303634127532965,16.054743502275397,1.90574575,-6.257423065,-3.37229915079023,0.0,2.1105,0.0
mp-559325,Ba14Sc12Al4O38,68,2,194,1059.8935269704286,4.978909493266198,15.586669514271009,2.43714339,-8.020128059264707,-3.522185413235294,1.0,2.420699999999999,1.0
mp-1228681,Ba14Sr10Mo8N32,64,4,4,1287.6210498216358,5.177186777486707,20.11907890346306,2.42995139,-7.28349720375,-1.0744344103125,0.0,2.0781,0.0
mp-561502,Ba32B20N40F4,96,5,2,1907.74203741036,4.567052567655792,19.872312889691248,1.74614335,-6.955250246770833,-1.370025738472222,0.0,2.308,0.0
mp-865213,Ba8Bi4H2O1,15,1,139,546.1501525350221,5.936628089899559,36.410010169001474,2.84634979,-3.992488108666667,-1.149139399166667,1.0,0.5652,1.0
mp-2762127,Ba8Bi4O17,29,4,8,530.2253923202923,6.910315881307328,18.28363421794112,3.0009065,-21.02306856620689,-2.144478016206895,1.0,0.9074,1.0
mp-561045,Ba8Ce3Sb4O24,39,1,139,633.5393461702952,6.264285120660729,16.24459861975116,3.15066021,-7.310804028974358,-2.992093305641025,1.0,1.8772,1.0
mp-1228663,Ba8Eu1B6N12,27,0,221,517.9294312844826,4.756349793490225,19.18257152905491,3.70742527,-7.320828903703703,-1.180992051851852,0.0,0.3669,0.0
mp-694888,Ba8Mn8O21,37,4,6,533.2402162301847,5.836073603936207,14.41189773595094,2.75701814,-7.697052202702703,-2.492860230768872,0.0,0.8045,1.0
mp-34034,Ba8P5Br1,14,1,82,484.8368527314639,4.566781995836918,34.63120376653314,3.16513898,-4.347836052142854,-1.200256503443875,1.0,1.308799999999999,0.0
mp-1104424,Ba8Sb4H2O1,15,1,139,525.5164018073013,5.067318167932068,35.03442678715342,2.94631761,-4.181433568,-1.274360343833332,1.0,0.636999999999999,1.0
mp-561455,Ba32Sb24S68,124,4,13,3726.5831409693865,4.231851222898561,30.05308984652731,3.70831164,-5.091333434193548,-1.527529575887095,0.0,1.687999999999999,0.0
mp-1228480,Ba8Si43Ni3,54,6,155,1100.5044394197423,3.74562491395741,20.379711841106342,6.55186375,-5.141829917222221,-0.216257975555555,0.0,0.028699999999999,0.0
mp-1200444,Ba32Si24Sn4,60,3,60,2139.272585191482,4.302845397912483,35.6545430865247,3.43439672,-3.916965915,-0.456080611333333,0.0,0.258899999999999,0.0
mp-1195594,Ba64Sn32S120,216,3,29,6502.604306898791,4.197042014707602,30.104649568975884,2.87738868,-5.193258925833333,-1.731574464629628,0.0,2.0442,0.0
mp-1195367,Ba16U4Pd2Se32,54,3,58,1681.3478889340672,5.816024904886698,31.13607201729754,3.46205903,-5.497752701481481,-1.829268072129628,0.0,0.353299999999999,0.0
mp-28788,Ba36Au8O48,92,3,62,1824.399984980432,6.632941395922018,19.83043461935252,2.24125839,-6.080772264891304,-2.463638764021739,1.0,1.8544,1.0
mp-1195654,Ba18U8Ag20S48,94,1,108,2402.599891907676,5.579318404065036,25.55957331816677,3.91148489,-5.569653082021276,-1.5231334883333312,0.0,0.4032,0.0
mp-7394,Ba1Ag2Ge1S4,8,1,121,195.46732736462647,4.70604412291684,24.43341592057831,3.38929799,-4.61499012875,-1.017325576041665,0.0,0.5960999999999991,0.0
mp-569790,Ba1Ag2Ge1Se4,8,3,23,223.01132455037617,5.52152132974412,27.87641556879702,2.9147817700000003,-4.22504241125,-0.94860190346354,0.0,0.035,0.0
mp-555166,Ba1Ag2Sn1S4,8,3,23,204.3957900736877,4.874752565136565,25.54947375921097,3.669229,-4.53063181125,-1.009649258541665,0.0,0.3679,0.0
mp-569114,Ba1Ag2Sn1Se4,8,3,23,235.4136011142876,5.555595827459082,29.42670013928594,3.12994403,-4.16684470625,-0.96708619846354,0.0,0.065399999999999,0.0
mp-9899,Ba2Ag2P2,6,2,194,158.5344961850996,5.785357274519447,26.42241603084993,3.86383053,-4.115009856666667,-0.72254780876984,0.0,0.1217,0.0
mp-1086652,Ba2Ag2S2F2,8,1,129,174.53310087318576,5.637314434554091,21.81663760914822,2.57443434,-4.9533515875,-2.249820447291666,1.0,1.4324,0.0
mp-1205316,Ba2Ag2Sb2,6,2,194,192.5591876307241,6.328895056002942,32.09319793845402,4.06087267,-3.808687523333333,-0.8450495705555541,0.0,0.0415,0.0
mp-1190401,Ba4Ag4Sb4S12,24,4,15,664.0076507774867,4.632952646874406,27.666985449061944,3.28306337,-4.668578166666667,-1.117579406527777,1.0,1.422899999999999,0.0
mp-1079647,Ba2Ag2Se2F2,8,1,129,185.53016604624423,6.142612558392519,23.191270755780533,2.49357384,-4.805982800000001,-2.263063682252604,1.0,1.269299999999999,0.0
mp-16742,Ba2Ag2Te2F2,8,1,129,206.5936401377877,6.298244067181046,25.824205017223463,3.4487153,-4.63814405,-2.183376328333333,1.0,1.510999999999999,0.0
mp-1207108,Ba1Al1Ge1H1,4,6,156,87.31759892995997,4.5252736413746,21.82939973249,3.73762939,-3.9766139575,-0.5559276915625,0.0,0.7492999999999991,0.0
mp-644097,Ba4Al4H20,28,3,33,332.5851951436852,3.382103234435417,11.878042683703043,1.68401729,-3.685039141785714,-0.450698718392857,0.0,2.7537000000000003,0.0
mp-571093,Ba1Al1Si1H1,4,6,156,85.61512097687623,3.751107717406331,21.403780244219057,3.87963666,-4.081088935,-0.4598301253125,0.0,0.709299999999999,0.0
mp-31243,Ba6As12,18,4,7,547.2425624795424,5.228292189511429,30.4023645821968,3.24069539,-4.532290752777779,-0.7792174177777801,0.0,0.414499999999999,0.0
mp-1214472,Ba1As2Xe5F22,30,3,69,607.3861752073278,3.722491887822,20.24620584024426,-3.74489192,-3.619094796333333,-1.834266692833333,0.0,2.601099999999999,0.0
mp-1190864,Ba1Au2S4O16,23,4,12,390.9375063946651,3.888705968002586,16.99728288672457,-0.7295966500000001,-6.275245334782609,-1.74535171347826,0.0,1.785299999999999,1.0
mp-866301,Ba4B4Sb4S16,28,3,62,732.6209720150708,3.609817020994163,26.16503471482396,2.42408514,-5.393291780357144,-1.210319463095237,0.0,2.3423,0.0
mp-1041349,Ba4Bi4F28,36,4,14,622.3936010988632,5.115027534755005,17.28871114163509,-0.6531382,-4.967947967222222,-2.833950647777778,1.0,0.3525,0.0
mp-2767120,Ba4Bi4F28,36,4,14,549.6551712367889,5.791922961286113,15.268199201021911,-1.85049351,-14.623595200555554,-2.747589091666665,1.0,2.5411,0.0
mp-551243,Ba2Bi2I2O4,10,3,63,265.77374666609904,6.313054354854154,26.577374666609906,2.33286177,-5.629911883,-2.184123108,0.0,2.947,1.0
mp-1228172,Ba2Bi2N2O10,16,4,8,290.3331073133751,5.036654550171147,18.145819207085943,1.25755121,-6.67422861,-1.8133421075,0.0,2.219299999999999,1.0
mp-27365,Ba8Bi8Se24,40,3,19,1254.1615237266026,6.177229599398782,31.354038093165062,2.87156278,-4.576548426749997,-1.3171996901562482,0.0,0.9943999999999992,0.0
mp-1029375,Ba1C1N2,4,6,166,83.04499919984701,3.546251223939149,20.76124979996176,0.6340318500000001,-7.930306045,-0.974257064375001,0.0,2.8508,0.0
mp-1214597,Ba8Ca16W8N32,64,3,61,1141.9220491213312,5.320483727141021,17.8425320175208,5.08970699,-7.741635760468751,-1.21145877171875,0.0,2.578899999999999,0.0
mp-606338,Ba4Ca16Co8N16,44,1,130,849.5665520815402,3.686574622016441,19.30833072912592,3.14724569,-6.008386464090909,-0.775539293181818,0.0,0.2914,0.0
mp-569603,Ba4Ca16Cu8N16,44,1,130,858.6289182876634,3.719032012407539,19.51429359744689,3.11687365,-5.437178013863637,-0.7560053975000001,0.0,0.218799999999999,0.0
mp-16252,Ba4Ca4Ge4,12,3,62,403.4526850792667,4.11656192920288,33.621057089938894,2.93059898,-3.432007458333333,-0.5828065666666661,1.0,0.181299999999999,0.0
mp-1102214,Ba4Ca4Pb4,12,3,62,470.644327159618,5.427891856799928,39.22036059663483,3.28767324,-3.136814856666665,-0.5910742266666641,0.0,0.2152,0.0
mp-16253,Ba4Ca4Si4,12,3,62,400.1056717595829,3.411348822570092,33.342139313298574,3.02787046,-3.510338259166668,-0.393707309166668,1.0,0.1767,0.0
mp-11265,Ba4Ca4Sn4,12,3,62,461.3195490007541,4.263513451977776,38.44329575006284,3.29969359,-3.320832460000003,-0.676116901666669,0.0,0.2437,0.0
mp-1190335,Ba2Cd2As4O14,22,5,2,340.6479010114255,4.987516973107876,15.483995500519342,0.72859186,-6.361169388636363,-2.101627822272726,0.0,2.5654,1.0
mp-1095151,Ba2Cd2As2F2,8,1,129,194.01968104356092,5.882470652399688,24.25246013044512,2.73520641,-4.31413522375,-1.948395214375,1.0,0.9586,0.0
mp-13831,S32Ge8Cd8Ba8,56,3,43,1558.1533787323967,3.841994063527975,27.824167477364227,1.39135044,-4.723963744642857,-1.287470708214284,0.0,2.6727,0.0
mp-7899,Ba4Cd4O8,16,3,62,275.1675887508609,6.800727731381949,17.197974296928805,1.79066562,-5.330421371874999,-2.136694586874999,0.0,0.9746999999999992,1.0
mp-1078693,Ba2Cd2Sb2F2,8,1,129,210.45717480728683,6.162151834207116,26.30714685091085,3.65210444,-4.17675826875,-1.946298582499999,1.0,0.289699999999999,0.0
mp-12306,Ba8Cd8Sn8S32,56,3,43,1606.086617582883,4.108386333155849,28.68011817112291,1.65335943,-4.629087092857146,-1.280230627857144,1.0,2.196399999999999,0.0
mp-4887,Ba2Ce2N4,8,2,194,148.71280308184802,6.821501240398689,18.589100385231003,5.11252325,-7.36027853,-1.227158454999999,0.0,0.6481,0.0
mp-3187,Ba4Ce4O12,20,3,62,344.64733173556965,6.272009404625958,17.232366586778483,2.8039082,-8.129798318000002,-3.589836753000001,1.0,2.2207,1.0