material_id,composition,nsites,crystal_system,space_group,volume,density,density_atomic,efermi,energy_per_atom,formation_energy_per_atom,is_gap_direct,band_gap,is_oxide
mp-555898,K4Cr6Cl4F12,26,4,14,487.65527010754136,2.854069033070838,18.75597192721313,1.09368687,-6.225539101538461,-2.656148201115384,1.0,2.4339,0.0
mp-2047105,K2Cr1F6,9,1,139,133.3323888511901,3.041088608172981,14.814709872354456,-1.24794583,-5.482909138888889,-2.883031231611111,0.0,0.703399999999999,0.0
mp-866709,K4Cr2H4F16,26,4,14,364.7250294986831,2.587802862947539,14.02788574994935,-2.89101094,-5.237681416538463,-2.620993817076924,1.0,2.0316,0.0
mp-561541,K8Cr4S4O28,44,4,14,747.1193875549008,2.438210858867951,16.9799860807932,-1.0988838,-6.641745422272728,-2.033575102454545,0.0,2.4957000000000003,1.0
mp-542332,K4Cu2C4O12,22,3,43,305.973434711398,2.841183717134321,13.907883395972636,0.62299651,-6.809888350909091,-1.8547026117727272,0.0,0.5492,1.0
mp-1023132,K4Cu2Cl4F4,14,3,64,299.9998429040761,2.774711380926383,21.428560207434007,0.16543814,-4.11356211,-2.129742614928571,0.0,0.585299999999999,0.0
mp-6598,K4Cu2P8O24,38,4,9,553.479437259142,2.745949301144008,14.565248348924788,0.98514228,-7.080464972105263,-2.480498010161653,0.0,0.8983000000000001,1.0
mp-559644,K8Cu4P12S36,60,4,14,1617.8343042651254,2.148242782260948,26.963905071085424,2.77683354,-4.827850729333334,-0.83761054272857,0.0,1.9627,0.0
mp-556074,K2Cu3Se4O12,21,5,2,331.5064122238839,3.890381941039665,15.786019629708758,1.78850694,-5.516233630952381,-1.329588991613095,0.0,0.091299999999999,1.0
mp-556787,K8Cu12S12O52,84,4,15,1264.0463263369898,3.011044975450619,15.04817055163083,1.18836936,-6.094779654880952,-1.747211501404761,0.0,0.1405,1.0
mp-15684,K4Cu2As2,8,3,63,222.2534458596745,3.237559418185954,27.78168073245932,1.65357036,-3.0929830075,-0.3349658455,0.0,1.0674,0.0
mp-1110871,K2Cu1Bi1Cl6,10,0,225,286.6215497470162,3.264289768337317,28.66215497470162,1.86171801,-3.735855810999999,-1.60153208845,0.0,1.161699999999999,0.0
mp-571440,K8Cu4Br12,24,3,62,719.33625627236,3.5222485168018363,29.97234401134833,0.9455239,-3.39987163375,-1.521074013666666,1.0,1.901799999999999,0.0
mp-569952,K8Cu4Cl12,24,3,62,615.9117254140108,2.6755938053235493,25.66298855891712,1.50299184,-8.516120232083333,-1.626013471249999,0.0,2.052,0.0
mp-8388,K4Cu2F8,14,3,64,214.23004061424183,3.375432189913843,15.302145758160131,0.2067076,-4.541260167142857,-2.538780793499999,0.0,0.382399999999999,0.0
mp-8446,K4Cu2P2,8,3,63,208.92814413403624,2.745463209188628,26.11601801675453,2.14619529,-8.39794020875,-0.426590162619048,0.0,1.1421,0.0
mp-1105938,K2Dy4Cu4S9,19,4,12,407.82752497395046,5.174952404792967,21.46460657757634,4.6376356,-5.568967555263158,-1.654319958087716,0.0,0.8801999999999991,0.0
mp-977368,K2Dy4Cu4Se9,19,4,12,459.5288531125418,6.117846197940607,24.18572911118641,3.33299183,-5.111926102105263,-1.501596021171599,0.0,0.7292999999999991,0.0
mp-1212263,K8Eu4F20,32,3,62,522.6407884236385,4.132311395776761,16.332524638238702,-1.9182411,-6.2034419634375,-3.438427809000001,1.0,0.1588,0.0
mp-628804,K8Eu4Si4Se20,36,4,14,1072.132434828185,4.045800783984498,29.78145652300514,3.41544887,-5.286586644722222,-1.347061447079861,0.0,0.339,0.0
mp-619092,K8Fe8As8O36,60,3,62,925.3510025008782,3.472166827492609,15.422516708347969,0.65888728,-6.748242159166667,-1.876597094133334,0.0,1.8765,1.0
mp-1205367,K4Fe2F10,16,4,12,235.713588253764,3.226960904122503,14.732099265860246,-2.36012479,-5.442513710781251,-2.90476089446875,0.0,2.9703,0.0
mp-19320,K8Fe4O16,28,3,62,453.0861074901879,2.903217051962533,16.18164669607814,-0.817672499999999,-5.7895104321428565,-1.428852621357141,0.0,1.6183,1.0
mp-15432,K16Ga16As24,56,4,14,1468.933679724094,4.00091457466435,26.23095856650168,1.706355579999999,-3.645243426964285,-0.455343557249999,0.0,1.670399999999999,0.0
mp-15433,K16Ga16Sb24,56,4,14,1799.2208760030658,4.303932943483237,32.12894421434046,2.62387369,-3.38773120267857,-0.429740458321426,0.0,1.1651,0.0
mp-10973,K8Ga12Cu4Se24,48,4,15,1313.6620051296277,4.169716117443468,27.36795844020057,1.5602132,-4.073257994375,-1.038116073630208,1.0,1.5668000000000002,0.0
mp-1112284,K2Ga1Ag1F6,10,0,225,163.72038367477631,3.750487051014523,16.372038367477632,-0.44684764,-4.645780843,-2.684092103366666,0.0,2.243,0.0
mp-15415,K16Ga8As16,40,4,14,1266.7962347412029,3.122502252029281,31.66990586853008,1.08203007,-3.404209366000001,-0.4779932594,0.0,1.0207,0.0
mp-15417,K16Ga8P16,40,4,14,1166.1299135323954,2.390763184464388,29.153247838309888,1.60873962,-3.678166350249999,-0.453809846507141,0.0,1.2309,0.0
mp-30077,K16Ga8Sb16,40,3,62,1451.7841978891142,3.58180368106706,36.29460494722785,2.44500143,-3.198759431749999,-0.488991842149999,0.0,1.215199999999999,0.0
mp-1195504,K8Gd4B20H80,112,4,11,1265.6496578692152,1.625104351372146,11.300443373832278,-0.61474058,-4.632612271785715,-0.43121408197619,0.0,2.5191,0.0
mp-1199482,K8Gd8Sb8Se36,60,4,12,1747.8917918181537,5.118184116149749,29.13152986363589,2.56654616,-5.996821729500001,-1.32107574920625,0.0,0.9272,0.0
mp-1212034,K8Gd4Cl20,32,3,62,869.7984411763591,3.151643887115392,27.181201286761222,1.76112116,-13.18079370875,-2.40632775125,0.0,2.5725,0.0
mp-642655,K8Gd4F20,32,3,62,518.7304791402975,4.231147025643202,16.210327473134296,-0.6541292,-6.959812918125,-3.7212974730625,0.0,0.242399999999999,0.0
mp-561132,K4Ge4Pb2S12,22,4,15,633.2082364598252,3.267886836652918,28.782192566355693,1.603421459999999,-4.642275152727273,-1.001220640863635,0.0,2.211299999999999,0.0
mp-541878,K8Ge8S20,36,4,15,1002.5561907123564,2.542770396423353,27.848783075343235,0.76040037,-4.617347309166668,-1.039503643277778,1.0,2.3273,0.0
mp-29388,K8Ge8Se20,36,4,11,1191.9198515966164,3.445441224556699,33.10888476657268,-0.23841107,-4.17385288888889,-0.95292482846875,0.0,1.9498,0.0
mp-8930,K4Ge2As4,10,3,72,309.828733732268,3.223010005708031,30.9828733732268,1.701105179999999,-3.631489607000001,-0.386287133900002,0.0,0.8442000000000001,0.0
mp-9692,K4Ge2Se6,12,5,2,384.1135358257067,3.352230530930631,32.009461318808896,0.09870696,-3.992296728333336,-1.096713106088544,0.0,1.7264,0.0
mp-29022,K8Ge4Se16,28,4,14,867.6056567165439,3.57275091405376,30.98591631130514,0.53312283,-3.997859569285717,-1.016514824839289,0.0,1.7939,0.0
mp-28126,K8Ge4Te16,28,4,14,1074.7811431886032,4.086447602935207,38.3850408281644,1.75003199,-3.563985572857143,-0.784129733738094,0.0,1.0714,0.0
mp-696941,K8H8Ru4O20,40,3,19,599.4764869817615,2.894957805770508,14.986912174544036,0.29046611,-5.903876563,-1.597148574199999,0.0,0.8767,1.0
mp-643257,K2H4Pd1,7,1,139,129.0988210747073,2.426497539034409,18.442688724958185,-1.47780487,-7.331484895714285,-0.35756616892857,0.0,2.3826,0.0
mp-643801,K2H6Pb1O6,15,6,148,172.67703851419463,3.725801208106891,11.511802567612976,-0.2656308,-5.186129767333333,-1.4505196888,1.0,2.1354,1.0
mp-568855,K8Hg4P8Se24,44,4,14,1355.568189860557,3.990944380473466,30.80836795137629,1.03824065,-3.903611343863636,-0.7782633984407471,1.0,1.4002,0.0
mp-17792,K4Hg6Ge4S16,30,3,41,796.9853382781444,4.507776025400731,26.566177942604813,1.00018386,-3.829443299333335,-0.793130778800002,0.0,1.552099999999999,0.0
mp-17307,K4Hg6Ge4Se16,30,3,41,951.2862544516754,5.08634183485221,31.709541815055847,0.63983605,-3.446487876,-0.7528143367166671,0.0,1.2695,0.0
mp-1211986,K8Hg12S16,36,3,60,972.0182532993252,5.522907988239209,27.000507036092365,0.99164762,-2.952245733888885,-0.7583353085555531,1.0,1.7408,0.0
mp-1212008,K8Hg12Se16,36,3,60,1081.740317816957,6.114501733337163,30.04834216158214,0.551943899999999,-2.689344493888888,-0.7809665529305561,1.0,1.1091,0.0
mp-1211969,K4Hg12S14,30,1,113,801.4766343929779,6.241205011494901,26.71588781309926,2.38361432,-2.819383682,-0.613431105800002,1.0,1.3918,0.0
mp-725973,K8Hg4Cl16,28,3,55,818.6646383240004,3.412486011791583,29.23802279728573,-0.94552429,-13.842229646428573,-1.554502505714286,1.0,2.3613,0.0
mp-5860,K2Hg1O2,5,1,139,106.7884172544058,4.832652372770474,21.35768345088116,-0.13230634,-3.832401744,-1.338735045400001,1.0,2.0773,1.0
mp-28859,K8Hg4S8,20,3,57,619.1392206959077,3.678826292061515,30.956961034795388,0.0554539,-3.196724389499999,-1.0268982659,1.0,2.1351,0.0
mp-1172870,K2Ho4Cu4S9,19,4,12,403.4950399357433,5.27052475455642,21.236581049249644,3.93423175,-5.563589257894737,-1.653298726684208,0.0,0.8687,0.0
mp-581517,K8In4P8Se32,52,4,9,1629.04260820002,3.615139045680322,31.327742465385004,1.47857291,-4.177520755769231,-0.8067398280155671,0.0,1.1954999999999991,0.0
mp-21836,K4In24Se38,66,6,148,2035.6086982679333,4.823100763142531,30.84255603436264,2.18744077,-3.967491252121213,-0.88278996603125,1.0,0.8553000000000001,0.0
mp-21741,K16In16As24,56,4,14,1658.4135459592146,4.266240065992982,29.614527606414548,3.03178717,-3.512574681071425,-0.399509748261901,1.0,1.000699999999999,0.0
mp-1199715,K8In8P12Se40,68,4,14,2031.4981151238244,3.891963504306067,29.87497228123271,1.47546964,-4.232792630294114,-0.76299131942349,1.0,1.5675,0.0
mp-579637,K16In16Sb24,56,4,14,2000.8186941101549,4.469089665389393,35.72890525196705,3.14526469,-3.298649794285712,-0.41749398683333,0.0,1.207199999999999,0.0
mp-21705,K8In12Ag4Se24,48,4,15,1457.8481808855563,4.575631956806841,30.371837101782425,1.44269779,-3.844888540625,-0.9816662723107632,0.0,1.489199999999999,0.0
mp-21713,K8In12Cu4Se24,48,4,15,1465.321734016757,4.351386864837917,30.527536125349105,2.20631496,-3.945517011041666,-0.97760566008854,1.0,1.2031,0.0
mp-862780,K4In2P4S14,24,4,12,657.3049948043374,2.422287583060256,27.387708116847392,1.6930908100000002,-4.702642305,-0.967527537329363,1.0,1.8783999999999992,0.0
mp-1223734,K4La4Sb4S18,30,3,55,800.1674206959846,3.686092510301465,26.67224735653281,3.86442707,-5.279837635666666,-1.437304819466665,0.0,1.1627,0.0
mp-1212017,K8La4I20,32,3,62,1331.30143334005,4.248941927246774,41.60316979187656,1.4539648,-3.612478894374998,-1.760127691187498,0.0,2.7532,0.0
mp-542081,K8La4P8S28,48,4,14,1299.2392802548109,2.574087964414362,27.06748500530856,2.15122878,-5.270626837708334,-1.354109289898809,0.0,2.3832,0.0
mp-542078,K8La4P8Se28,48,4,14,1491.8973033194911,3.703166168807635,31.081193819156063,2.48438505,-4.715976525208333,-1.174220363140996,1.0,1.4904,0.0
mp-1204933,K4La2Ta10O30,46,1,127,639.042092816727,7.077393004369493,13.89221940905928,4.46793952,-9.485303580652175,-3.365616652876812,0.0,2.5845,1.0
mp-1198663,K8Li4H24N12,48,1,84,588.981642609661,1.502204177160257,12.270450887701273,1.85688084,-4.620002415208333,-0.490211233569444,0.0,2.3848000000000003,0.0
mp-504806,K2Li14Pb3O14,33,3,71,387.24512422429393,4.377970212066324,11.734700734069513,1.01975631,-5.222623771212121,-1.9075615027626247,0.0,2.018199999999999,1.0
mp-757868,K8Li12Co4O16,40,4,14,506.42444946472926,2.9110545680355813,12.660611236618232,1.18919203,-5.261573122500001,-1.770096243949999,0.0,1.4735,1.0
mp-774432,K8Li12Ni4O16,40,4,14,497.7161659886655,2.958787662024303,12.442904149716638,0.860853299999999,-5.0193572445,-1.66320836995,0.0,1.8411,1.0
mp-23774,K4Li2Al2H12,20,6,166,240.3310202708004,1.632919063202705,12.01655101354002,0.14027695,-3.19973158,-0.370907902533333,0.0,2.5761000000000003,0.0
mp-6450,K4Li2Al2P4,12,3,72,281.39355426822783,2.054378922727279,23.449462855685653,2.54664006,-3.757928458333333,-0.633230926186506,0.0,1.8853,0.0
mp-1207213,K2Li1Cu1F6,10,0,225,132.84509466629146,3.283376565451131,13.284509466629146,-0.77199652,-4.580088817,-2.604690493783333,0.0,0.9248,0.0
mp-9703,K8Li4Ga4As8,24,3,64,615.6367229123363,3.287474868282158,25.651530121347346,1.707958699999999,-3.329945701666666,-0.5732784683888881,0.0,1.1937,0.0
mp-505431,K8Li4In4As8,24,3,64,663.9452286501603,3.499412588780623,27.66438452709001,2.2786038,-3.2627029725,-0.5508561190833331,0.0,1.1838,0.0
mp-1111665,K2Li1Rh1F6,10,0,225,128.5669864768903,3.900989451475024,12.85669864768903,0.14166667,-4.964962657999999,-2.6630542147833323,1.0,1.7665000000000002,0.0
mp-680450,K32Li16Sn64,112,4,15,3887.501696672313,3.827094123783893,34.70983657743137,3.5806804,-3.174258316875,-0.287122640851189,1.0,1.0043,0.0
mp-767165,K8Li4V4S16,32,4,9,827.8236993955182,2.120960792499198,25.869490606109945,0.6177697400000001,-5.13028147,-1.404155638479165,0.0,1.602199999999999,0.0
mp-759183,K8Mg4H32N16,60,4,14,715.0597939625715,1.547464386478323,11.917663232709524,-0.23256801,-4.824359440333334,-0.5305159769666661,1.0,2.5305,0.0
mp-11643,K4Mg2P4Se12,22,4,14,663.4203466102832,3.194870909454065,30.155470300467417,1.42957251,-4.218792093636363,-0.973371604804382,0.0,1.8749,0.0
mp-755802,K8Mg4O8,20,3,60,337.6356191076174,2.645966906733719,16.88178095538087,0.78061274,-4.7230745555,-1.965248261399999,1.0,2.7608,1.0
mp-669410,K8Mn4Sn8Se24,44,1,130,1416.8781586481362,3.9580466223368,32.20177633291218,2.00223036,-4.614402710227273,-0.939914772635775,0.0,0.8791,0.0
mp-1195778,K4Mn6As6O24,40,4,15,516.6294258350465,4.241226071868924,12.915735645876165,2.58741009,-7.136158025250006,-1.9794237762896607,1.0,0.615699999999999,1.0
mp-27304,K2Mn1Cl6,9,0,225,226.0731965561247,2.54033577203331,25.11924406179164,-0.3952274,-8.711955285555554,-1.6414557374425272,0.0,1.0996,0.0
mp-557610,K2Mn1F4,7,1,139,113.96163389926603,3.047215366478987,16.280233414180863,0.34329632,-5.716676774285715,-2.990939026061577,0.0,2.807,0.0
mp-1211832,K4Mn2I8,14,4,11,602.0100995757731,3.534806477615153,43.00072139826951,2.623789979999999,-3.771326088571427,-1.268353917490147,1.0,2.0705,0.0
mp-8713,K4Mn2S4,10,3,72,272.5577633896386,2.403642042022516,27.25577633896386,1.8534418,-9.883736536,-1.325764393521552,0.0,0.9719999999999992,0.0
mp-8716,K4Mn2Se4,10,3,72,305.50601815727936,3.163980935322065,30.550601815727937,1.30094328,-4.802145603,-1.118830064423706,0.0,0.9895,0.0
mp-628305,K8Mn4Sn4Se16,32,1,118,949.2267982172824,3.97233846453489,29.66333744429007,2.24322585,-4.695371919687499,-1.018125356788253,1.0,0.2833,0.0
mp-18251,K4Mn2V4O14,24,1,113,435.6780882129184,2.645207081318002,18.153253675538267,-0.1507333,-7.742348570833332,-2.389990744785918,1.0,2.41,1.0
mp-19228,K4Mn2V8O24,38,4,14,659.1562992894085,2.664764725567935,17.346218402352854,-0.48702643,-8.031880548421052,-2.393148386443738,0.0,2.0298,1.0
mp-542671,K4Mo2I8O28,42,4,15,726.3887534749617,4.141106929491171,17.294970320832423,1.27284211,-5.511693512619049,-1.29855569902381,0.0,2.9387,1.0
mp-558124,K8Mo4S8O40,60,4,14,984.8369896206236,2.686037555280334,16.41394982701039,-0.6619755700000001,-6.796488332166667,-2.072173749466667,0.0,2.8802000000000003,1.0
mp-1224145,K8Mo8P8O44,68,4,4,1029.634619751375,3.277212824576943,15.141685584579047,1.18070407,-7.686442697205884,-2.438645181252102,1.0,2.4334,1.0
mp-1195788,K8Mo8Se8O44,68,3,62,1089.936136726874,3.68076241181482,16.028472598924616,0.13422272,-6.846138006470588,-1.824171319658088,1.0,2.787,1.0
mp-560268,K4Mo6As8O40,58,4,15,925.583440698704,3.536749559522046,15.958335184460417,-0.45386874,-7.111858719137931,-1.855327684465518,0.0,2.6696,1.0
mp-561554,K8Mo4As8O36,56,4,14,889.5592266894438,3.494268847103922,15.884986190882923,-0.52753584,-6.740801615535714,-1.956495639428571,0.0,2.7838000000000003,1.0
mp-559914,K8Mo4Cl20O4,36,3,62,990.0792095178268,2.464787494750122,27.502200264384083,0.18633646,-4.877535079166667,-1.844305683555556,0.0,2.767,1.0
mp-17980,K8Mo4S16,28,3,62,795.2196995838813,2.52579943967571,28.400703556567187,0.7211542400000001,-11.1437310975,-1.108230577321427,1.0,1.412799999999999,0.0
mp-866641,K8Na4H24N12,48,1,84,613.8673051731229,1.6149566997390692,12.788902191106729,-0.22838902,-4.52003193875,-0.437507597781609,0.0,2.11,0.0
mp-559878,K8Na8Ir4O16,36,4,14,598.832910134506,4.21923158371392,16.63424750373628,1.99024896,-5.290477010555556,-1.5597593213620682,0.0,0.3121,1.0
mp-504962,K8Na12In4O16,40,3,58,692.2273335677727,3.127903233566823,17.305683339194317,1.81734416,-4.530948316249999,-1.647056361780458,1.0,2.065699999999999,1.0
mp-541694,K8Na12Si4P12,36,3,62,930.8342820515056,1.913600490670543,25.85650783476404,1.941492419999999,-3.515255751388889,-0.408629041674055,0.0,0.8900999999999991,0.0
mp-17375,K8Na12Tl4O16,40,3,58,674.2531190631987,4.093606326229336,16.85632797657997,1.05195588,-4.297757031000001,-1.4526352391971271,1.0,1.5642,1.0
mp-14324,K4Na8Be4O10,26,1,136,364.0547843867404,2.446436485075206,14.002107091797708,0.98902677,-5.07521474576923,-2.009964490770556,0.0,2.4341,1.0
mp-1223676,K4Na8Co4O10,26,4,14,426.8871421965376,2.863098827769772,16.41873623832837,1.63320533,-5.038679890000001,-1.451275195770557,0.0,0.0758,1.0
mp-9069,K4Na2Al2As4,12,3,72,326.0269465975904,2.831964108496172,27.168912216465863,1.922594479999999,-3.336429488333333,-0.554715968479885,0.0,1.026,0.0
mp-24412,K2Na1Al1H6,10,0,225,129.35191423025097,1.722975357002804,12.935191423025096,0.11558888,-4.650418388,-0.34407027,0.0,2.3466,0.0
mp-9068,K4Na2Al2P4,12,3,72,302.2962258458198,2.088640709403263,25.191352153818315,2.37100221,-7.41859221,-0.69576564390873,0.0,1.4926,0.0
mp-34127,K4Na2As2,8,2,194,258.85755468784225,2.259421505249716,32.35719433598028,0.78506566,-2.418341467499999,-0.349695778344826,1.0,0.1469,0.0
mp-567836,K4Na2B2P4,12,4,12,330.3958238999362,1.7484621162432532,27.532985324994684,1.29638717,-3.9000556325,-0.380922458221948,0.0,1.771,0.0
mp-1111105,K2Na1Co1F6,10,0,225,142.06633240871798,3.203928252361139,14.2066332408718,1.46711521,-4.954517428,-2.7324183085879303,1.0,2.9932,0.0
mp-1206266,K2Na1Cr1Cl6,10,0,225,263.3100624206765,2.307515398921579,26.33100624206765,0.3681124,-4.392881088,-1.958004638587931,1.0,1.3875,0.0
mp-13797,K2Na1Cu1F6,10,0,225,146.63946480748984,3.156245009693247,14.663946480748985,-1.37409899,-4.495773594,-2.577095479587931,0.0,0.7248,0.0
mp-9676,K4Na2Ga2As4,12,3,72,340.98814972022853,3.12399227033998,28.41567914335237,1.53270087,-3.148599350833333,-0.486465798896552,1.0,0.8055000000000001,0.0
mp-9666,K4Na2Ga2P4,12,3,72,304.7209390148981,2.537849676287867,25.39341158457484,1.8715992,-3.353951118333333,-0.443367235444169,1.0,1.307899999999999,0.0
mp-21510,K4Na2In2As4,12,3,72,352.0592903600018,3.45114699622828,29.338274196666816,2.0740857,-3.090330409166668,-0.473017237090997,1.0,0.622899999999999,0.0
mp-21511,K4Na2In2P4,12,3,72,336.3988972262906,2.744063558070442,28.03324143552421,2.37766188,-3.269784761666666,-0.404021258638614,0.0,1.0504,0.0
mp-505767,K8Na4In4Sb8,24,3,64,840.0208218739232,3.633520252709595,35.00086757808013,2.73102345,-2.954904937083333,-0.517965529174328,1.0,0.5808,0.0
mp-1079339,K2Na1Mn1F6,10,1,139,150.89798291059512,2.972446846605264,15.089798291059513,-0.75197735,-5.408433609,-2.983474632381034,1.0,1.5314,0.0
mp-555116,K8Na4Mn4O16,32,3,70,527.2949262843085,2.772802740252729,16.47796644638464,0.5890089900000001,-5.889207165,-1.819417222976293,0.0,1.8124999999999991,1.0
mp-14039,K2Na1Rh1F6,10,0,225,154.60154636911963,3.416447498872315,15.460154636911962,0.0582441,-4.878004295999999,-2.63281606158793,1.0,2.000099999999999,0.0
mp-560950,K8Na4Tl4O12,28,4,14,552.8994090704725,4.247523147988233,19.74640746680259,0.70260603,-4.404725921071429,-1.430466584530378,1.0,1.261899999999999,1.0
mp-559790,K4Nb6Cl14O10,34,4,15,801.9890682290443,2.83696713391495,23.58791377144248,-0.71003492,-6.578440292647059,-2.446307399088236,1.0,2.3144,1.0
mp-17508,K2Nb4Fe2O13,21,4,12,307.880767074303,4.150281933554782,14.660988908300142,1.28936378,-8.58259765952381,-2.681097893309524,0.0,1.8139999999999992,1.0
mp-15214,K4Nb2Ag2S8,16,3,70,465.9022362938009,2.902854851725527,29.11888976836256,0.8003658100000001,-5.210185245625,-1.240132691395833,0.0,2.129099999999999,0.0
mp-9763,K4Nb2Cu2S8,16,3,70,437.9212728762132,2.7522049109512032,27.37007955476332,1.35108844,-5.4204759425,-1.293389764312499,0.0,1.9582,0.0
mp-9003,K4Nb2Cu2Se8,16,3,70,485.22742179353367,3.767752670053107,30.32671386209585,1.10917039,-4.97523418,-1.1693720467343751,0.0,1.6164,0.0
mp-555717,K4Nd4Ir2O14,24,6,167,368.0013563979034,6.054568445772431,15.333389849912642,2.11527706,-7.074149463333334,-2.468049836208333,1.0,0.2913,1.0
mp-16690,K8Nd4P8S28,48,4,14,1292.96854212095,2.613986458506163,26.9368446275198,1.73352459,-5.225170698749999,-1.322641456982141,1.0,2.4772,0.0