material_id,composition,nsites,crystal_system,space_group,volume,density,density_atomic,efermi,energy_per_atom,formation_energy_per_atom,is_gap_direct,band_gap,is_oxide
mp-1223894,K10Ba2Ta2P8,22,4,9,726.435660564538,2.9152250362683603,33.01980275293354,2.6792538,-4.327601181363637,-0.590815254286795,0.0,1.267599999999999,0.0
mp-14623,K10Cu2As4,16,2,194,533.8476737442388,2.543655837878724,33.365479609014926,1.222549949999999,-2.713298413125,-0.32626086953125,0.0,0.252499999999999,0.0
mp-12040,K40Fe8O32,80,3,61,1611.0386908788803,2.600183819523264,20.137983635986007,0.86927031,-4.939522421,-1.5476510366249991,1.0,2.298899999999999,1.0
mp-29377,K40Ga8Se32,80,3,61,2653.2220231062893,2.909258821677062,33.16527528882862,1.91817633,-3.536991195375,-1.270132140687499,1.0,1.8932,0.0
mp-667326,K80In16O64,160,5,2,3206.978737546148,3.100994990350771,20.043617109663423,0.87020776,-4.38325603675,-1.562469399041666,0.0,2.2357,1.0
mp-569806,K10Na2Ti12Se54,78,6,159,2260.4206000082127,3.875246288956493,28.97975128215657,1.59140335,-5.004214068333334,-1.189826083997707,1.0,0.8140000000000001,0.0
mp-1202095,K20Nb12O12F56,100,3,31,1905.819391573332,2.746985271665322,19.05819391573332,1.20302319,-6.3772922347,-3.27334903475,1.0,0.000199999999999,1.0
mp-14624,K10P4Au2,16,2,194,518.465448319326,2.910736835806664,32.40409051995788,1.46096326,-12.82640622625,-0.491352169337798,0.0,0.4815,0.0
mp-16989,K20Sn4As12,36,4,14,1175.5246656817694,3.045362204158589,32.65346293560471,1.43506582,-3.051598013888889,-0.420843784305555,0.0,0.5222,0.0
mp-1211936,K20Ta4Tl8As16,48,3,62,1595.4078933733476,4.516728762667779,33.23766444527808,1.71661662,-3.849787464375,-0.4375199210625,0.0,1.5206,0.0
mp-644,K10Te6,16,1,87,609.8372538320665,3.149284900515929,38.11482836450416,1.1192707,-14.46687823,-1.174004153593751,0.0,0.171599999999999,0.0
mp-628680,K20Th4P12S48,84,4,14,2317.561644028923,2.59440121119921,27.590019571772896,1.82043431,-5.058255399166667,-1.297424815841834,1.0,1.9711999999999992,0.0
mp-555531,K20Tl12O4,36,3,63,1210.8259371788424,4.52368328845939,33.6340538105234,2.20691376,-2.451321217777777,-0.482518332361113,0.0,0.1349,1.0
mp-14439,K40Tl8O32,80,3,61,1759.850198291659,3.50156277103692,21.99812747864573,0.65245986,-4.175196127249999,-1.393179652208333,1.0,1.7631,1.0
mp-1224616,K20U4P12S48,84,4,14,2393.1534707714336,2.529080133007522,28.489922271088496,2.5880378200000003,-5.142645214642857,-1.197169309413263,1.0,0.3198,0.0
mp-557888,K10U4O8F18,40,4,15,717.5793706567508,4.19558525226037,17.93948426641877,-0.936964399999999,-6.70700588425,-3.444196682812499,0.0,2.6418,1.0
mp-769176,K40Y8O32,80,3,61,1749.7440789279674,2.6450653306309952,21.87180098659959,-0.04846328,-5.167687923499999,-1.971909510124998,1.0,2.1088,1.0
mp-17161,K12Cd2O8,22,2,186,431.4282342330357,3.163811940696736,19.610374283319803,0.43150575,-3.840527868636362,-1.336884909863634,0.0,1.5819,1.0
mp-17698,K12Cd2Te8,22,2,186,895.7007698781348,3.179069555400297,40.71367135809704,0.68702733,-2.95585891590909,-1.108454179560604,1.0,1.6614,0.0
mp-510366,K12Co4O10,26,1,136,530.5002909531748,2.707276239869873,20.40385734435288,1.5084916,-4.928667443076924,-1.405986150653846,0.0,0.6965999999999991,1.0
mp-19141,K12Co4O14,30,4,14,544.3166321035511,2.833794260427416,18.14388773678504,0.48277762,-5.241021294000002,-1.528302706566668,1.0,0.8768,1.0
mp-560675,K6Cu1Si2O8,17,5,2,301.242140338401,2.658596542965873,17.720125902258882,1.67083037,-5.9182992752941175,-2.311137563147058,0.0,0.5214999999999991,1.0
mp-5114,K12Hg2S8,22,2,186,669.5499265227218,2.7947543940042223,30.434087569214626,0.24865348,-3.287384204090908,-1.137263418272726,1.0,1.7161,0.0
mp-1191206,K12Hg2Se8,22,2,186,746.6187383852689,3.3406547507426563,33.93721538114858,0.14428299,-3.079202859545453,-1.162699560943181,1.0,1.384599999999999,0.0
mp-1226185,K24In4As12,40,5,2,1401.0797578126485,2.722003591743527,35.02699394531621,0.94641074,-2.753514276999999,-0.397738309266665,0.0,0.4983,0.0
mp-1224505,K12In2P6,20,5,1,655.7894762340537,2.240062563414249,32.789473811702685,1.23096394,-2.8948517055,-0.315470439909522,0.0,0.748699999999999,0.0
mp-568916,K12In2Te8Cl2,24,2,186,930.9477065919964,3.193768076700582,38.78948777466652,1.08361718,-3.292489950833333,-1.29506007973611,1.0,1.9503,0.0
mp-12171,K12Mg2O8,22,2,186,407.07308147293975,2.634295751358229,18.503321885133627,0.89918232,-4.136565298636364,-1.5719714466818182,1.0,1.6783,1.0
mp-18244,K12Mn2S8,22,2,186,647.706949946721,2.142181856255185,29.441224997578228,1.22392296,-8.853105556818182,-1.313749682112068,0.0,1.2969,0.0
mp-18481,K12Mn2Se8,22,2,186,725.04896057433,2.772880207950865,32.956770935196815,0.81898883,-3.925495515909091,-1.20423373961873,0.0,1.232,0.0
mp-18246,K12Mn2Te8,22,2,186,878.7370226780262,3.023228571923615,39.94259193991028,1.18358866,-15.046615994999998,-1.186450946543885,1.0,1.4227,0.0
mp-1198979,K6Na14Mg1Tl18,39,0,200,1191.499987704224,5.9364808381253695,30.55128173600574,3.10853957,-1.907126129743585,-0.115093377123341,0.0,0.0253,0.0
mp-1211804,K6Na14Tl18Cd1,39,0,200,1279.4573370352796,5.642720621981573,32.80659838551999,2.96433496,-1.880451412307692,-0.10560993725155,0.0,0.001999999999999,0.0
mp-541707,K12Na6Al2Sb8,28,2,194,971.9365225817036,2.7936487043485423,34.71201866363227,1.86902937,-2.702773536785714,-0.48313343233128,0.0,0.7395,0.0
mp-6112,K12Na6Ga2Sb8,28,2,194,972.5471598518964,2.937849245573924,34.73382713756773,1.71734185,-2.650582231428571,-0.482190684652708,0.0,0.7099000000000001,0.0
mp-560348,K24Nb16S100,140,4,14,3898.002338085023,2.398945560451486,27.84287384346445,2.38672459,-5.4092185915,-1.104863514814284,1.0,1.5418,0.0
mp-561202,K24Nb4As12O4,44,0,198,1392.7394160474262,2.7101080076241013,31.653168546532413,1.587985929999999,-4.093342932045454,-0.8344472975909081,0.0,1.0969,1.0
mp-567820,K24Nb4Tl4As16,48,3,62,1581.3514523869803,3.492829195198269,32.94482192472876,1.51119275,-3.6164610904166654,-0.454670621819445,0.0,1.1811,0.0
mp-505187,K12Pb4O10,26,5,2,592.2394866065221,4.087910677391129,22.778441792558542,1.15487078,-4.503406903076924,-1.5069978645000002,0.0,2.1249,1.0
mp-559613,K24Se8O36,68,1,92,1146.3912181880664,3.108490370367237,16.858694385118625,1.11626525,-5.15306113485294,-1.7229617032757352,1.0,1.6318,1.0
mp-1120789,K24Sn8S28,60,3,19,1912.1496278216048,2.419281403682395,31.869160463693422,0.51879591,-4.1425543925,-1.224162457899999,1.0,2.0416,0.0
mp-29386,K48Sn16Se56,120,4,14,4273.440619052339,3.185449884148001,35.61200515876949,0.50083465,-3.804705822416666,-1.186122996410416,0.0,1.9105,0.0
mp-28728,K24Sn12As20,56,3,59,1761.2148309914471,3.640588293417149,31.450264839132988,2.63115813,-3.432762770535711,-0.420795158821425,1.0,0.7018999999999991,0.0
mp-558062,K24Ti8S24O4,60,4,14,1780.728038061054,2.009412544022465,29.678800634350903,0.13390775,-5.256002966833333,-1.765514914844443,0.0,2.5171,1.0
mp-30149,K24Tl8Sb12,44,4,15,1656.5517865940385,4.044256653487253,37.6489042407736,2.19831965,-2.6012558000000032,-0.426877046378791,1.0,0.253099999999999,0.0
mp-559811,K24U8Cu48S60,140,0,230,3300.70091582682,3.93247783694494,23.57643511304872,3.11886226,-5.0620295465,-1.043832063385712,1.0,0.555399999999999,0.0
mp-558070,K6U2Mo4O21,33,5,2,600.6011357591218,3.954749117112393,18.200034416943083,-0.33433545,-7.899194174242439,-2.545835995409104,0.0,2.1736,1.0
mp-1194801,K12U10As4O46,72,4,14,1260.365591125597,5.118678292947067,17.50507765452218,3.10998944,-8.176505869027777,-2.9990442977361083,0.0,1.8012,1.0
mp-557365,K12U10V4O46,72,4,14,1222.2729255552952,5.147889877483373,16.976012854934655,1.22488706,-8.549663265555559,-3.126991497736112,0.0,1.7963,1.0
mp-1223803,K6Zn4Sn5S17,32,4,5,968.1485509730036,2.804098022876617,30.25464221790636,1.15192202,-4.263410098125,-1.068811201281249,1.0,1.5896,0.0
mp-1147618,K12Zn2S8,22,2,186,634.0548290806395,2.243151334550573,28.820674049119976,0.31886744,-8.280913763181818,-1.266351713068181,1.0,1.9713999999999992,0.0
mp-1147626,K12Zn2Se8,22,2,186,711.2280330530166,2.875658265994797,32.3285469569553,0.04023787,-3.242511682272727,-1.239638240715908,1.0,1.6517,0.0
mp-3949,K28Li4Si32,64,0,205,1951.965448297316,1.719481549525758,30.499460129645552,1.72864821,-3.3855368965625,-0.058595948692708,0.0,1.7232999999999992,0.0
mp-1211990,K28Na4Ge32,64,0,205,2172.6530943798325,2.683571819704141,33.94770459968488,1.18300453,-3.09651870921875,-0.206172979351831,1.0,1.3336,0.0
mp-17499,K7Nb1S6O24,38,6,148,653.2517916759823,2.396990986366241,17.190836623052167,-0.57628924,-6.509126167894737,-2.256438940940789,0.0,2.8444000000000003,1.0
mp-1212978,K14Nb28P18O120,180,3,51,2578.5550129224976,3.623169712623894,14.325305627347207,3.06169322,-8.421686528555556,-2.922188965805952,0.0,0.2736,1.0
mp-18361,K14Nb2As8,24,3,31,783.5129258445322,2.824166377028373,32.64637191018884,1.05564086,-3.505887382916666,-0.447438780479166,1.0,1.1294,0.0
mp-18073,K14Ta2As8,24,3,31,781.5311019618915,3.20545600208696,32.56379591507881,1.15590389,-3.650842007083334,-0.445258196090277,1.0,1.0407,0.0
mp-567424,K32Nb4As20Pb4,60,4,15,2064.540988956944,3.177042514067846,34.40901648261573,1.24677001,-3.5290020225000003,-0.447967185533333,1.0,1.2069,0.0
mp-1194900,K32Nb4Sn4As20,60,4,15,2051.794700294349,2.910315581320832,34.19657833823916,1.33733957,-3.5688116985,-0.467981875866666,0.0,1.2448,0.0
mp-18633,K16Sn2Sb8,26,0,227,1095.035576444771,2.785782688898878,42.11675294018351,1.29545936,-2.760806386153844,-0.485688340230766,0.0,0.3202,0.0
mp-1204657,K16Tl20Zn2,38,1,126,1479.6434258565655,5.436272967301469,38.93798489096225,2.31843064,-1.9128246378947351,-0.122012924280703,0.0,0.106399999999999,0.0
mp-704408,K32V8S24O108,172,4,4,2777.9542024139546,2.484377638746936,16.150896525662528,0.53653279,-6.528151038313954,-2.210851632220931,0.0,1.9921,1.0
mp-866664,K8Zr6B1Br20,35,0,225,1127.6092146683322,3.635928509308382,32.21740613338092,2.21089157,-4.7244343511428575,-1.874277664490476,0.0,0.055299999999999,0.0
mp-1211836,K8Zr6Be1Br20,35,0,225,1147.0682091422066,3.571644171424168,32.77337740406305,2.34904955,-4.593697900857142,-1.827540611514285,0.0,0.9222,0.0
mp-1212020,K8Zr6Mn1Br20,35,0,225,1183.998770006708,3.524649922621032,33.82853628590594,2.28776808,-4.724378545428572,-1.8032897581694591,0.0,0.1425,0.0
mp-554554,K18Bi2P8S32,60,3,18,1657.507283821219,2.399982140829972,27.62512139702032,2.33654131,-4.537284129,-1.139017162460713,0.0,2.1005,0.0
mp-1212015,K18Ce2P8S32,60,4,15,1628.3286959296602,2.302535007730739,27.13881159882767,3.20175215,-4.749388299333333,-1.282890814127379,0.0,0.342099999999999,0.0
mp-14889,K36Fe8S28,72,0,198,2024.9419774703072,2.256855176183103,28.124194131532043,1.556225999999999,-4.274692206805556,-1.158531823624999,0.0,0.748799999999999,0.0
mp-568644,K36In4Se28,68,4,14,2342.303505239119,2.8908144737733963,34.445639782928225,1.22120365,-3.433555155441176,-1.232797414754288,0.0,1.8956,0.0
mp-13749,O28K36Ni8,72,0,198,1338.8365458173014,2.883748767697042,18.594952025240296,2.24865625,-4.424945937361111,-1.292816609597221,0.0,0.5044000000000001,1.0
mp-558206,K9U6Bi1O24,40,0,221,673.8572120127109,5.847677005483054,16.84643030031777,3.01115504,-8.09747851075,-3.083181360881249,0.0,1.7081,1.0
mp-863710,K1Ac1Te2,4,0,225,138.50672648490055,6.249777281369325,34.62668162122514,5.04904022,-32.95179044,-1.579242447812504,1.0,0.8620999999999991,0.0
mp-18429,K4Ag4N8O24,40,4,14,605.723964263344,2.9714309409564272,15.1430991065836,-0.48485057,-6.0869161895,-1.053053297391665,0.0,2.4768,1.0
mp-557874,K4Ag4P8O24,40,4,14,625.5374740229994,3.237636061093626,15.638436850574983,0.79870635,-6.77964449425,-2.330342446070238,1.0,2.9041,1.0
mp-12015,K1Ag2As1O4,8,1,121,130.0800177257132,5.02647328165964,16.26000221571415,1.45797878,-5.2565774725,-1.346676018510416,0.0,0.2116,1.0
mp-12532,K1Ag2P1S4,8,1,121,188.3610971996221,3.6503124457238334,23.54513714995276,2.66010495,-4.3193373725,-0.721067763153272,0.0,1.2441,0.0
mp-561304,K8Ag24As16S40,88,3,62,2164.9395272654983,4.128812779347776,24.601585537107937,2.94647398,-4.141002774886363,-0.5326186239545441,0.0,1.7252,0.0
mp-9782,K2Ag6Se4,12,4,12,290.93660898916033,5.94297615154231,24.24471741576336,1.86420994,-3.341496139999999,-0.566161854489581,0.0,0.004199999999999,0.0
mp-1205342,K2Ag6Te4,12,4,12,336.059840158106,6.106364297100817,28.004986679842165,3.11193826,-3.169243184999999,-0.511444094263886,0.0,0.2536,0.0
mp-28468,K6Ag30S18,54,2,190,1219.5949552187485,5.5112885111143175,22.58509176331016,2.34987689,-15.610710269814817,-0.399305057835647,1.0,0.6972,0.0
mp-541966,K4Ag4C4O12,24,3,73,368.61070487271735,3.729579558942426,15.358779369696556,0.55496219,-6.321043070833333,-1.646567086069444,0.0,2.2257,1.0
mp-7387,K2Ag2F8,12,1,140,195.2207825350668,3.792977087687259,16.268398544588898,-3.25020433,-3.966239883333333,-2.027953733152777,0.0,1.459,0.0
mp-3074,K4Ag4O4,12,1,139,264.0651098774407,4.099159386853135,22.00542582312006,0.02597026,-4.001340740833331,-1.027251272138884,0.0,1.4858,1.0
mp-997088,K2Ag2O4,8,3,63,149.23847112129258,3.982604083021713,18.65480889016157,-0.56361765,-4.4885759125,-1.021018559729165,0.0,0.9659,1.0
mp-1196972,K12Ag12P12Se36,72,4,14,2105.312496150191,3.926211915396947,29.24045133541932,1.46630311,-4.032797888611111,-0.7198786620429061,0.0,1.3696000000000002,0.0
mp-16236,K2Ag2Se2,6,1,129,157.03071632481115,4.77817064343263,26.1717860541352,1.56917696,-3.302048998333333,-0.811976038753471,1.0,0.482199999999999,0.0
mp-1223690,K8Ag8Sn8Se24,48,1,103,1406.344570397475,4.747142166946491,29.298845216614065,1.69219685,-3.896445037916668,-0.8178427564079871,1.0,1.2891,0.0
mp-29373,K4Al4Sb16,24,3,62,811.4628576401394,4.527512710454111,33.81095240167247,4.15936196,-19.57364311875,-0.311038921041666,1.0,0.2452,0.0
mp-1211743,K8Al8Se16,32,4,15,908.0266200764108,3.277088796150879,28.375831877387835,1.10099387,-4.344670859374999,-1.377478732359374,1.0,2.4189,0.0
mp-18347,K8Al8Te16,32,4,15,1155.4337329939226,3.693835193292205,36.10730415606008,2.19000771,-16.85984304875,-0.963640327187501,0.0,2.2355,0.0
mp-713,K8As8,16,3,19,503.7965661137013,3.006523046083559,31.48728538210633,1.6671528100000002,-3.338292345,-0.437546217375,1.0,0.6695,0.0
mp-1198282,K4As8H4O24,40,4,14,569.518440482875,3.334917393362475,14.237961012071874,2.56364086,-6.10490540075,-1.749450675099999,0.0,2.7514000000000003,1.0
mp-1223531,K1As4H3O12,20,5,1,258.0743296288089,3.434661428502259,12.903716481440446,-0.15394219,-6.092492244000001,-1.62384768255,0.0,2.7809,1.0
mp-23083,K1As4Br1O6,12,2,191,228.5749412938226,3.739056918091068,19.04791177448521,1.09718143,-5.968895481666667,-1.7075144468541672,0.0,2.738699999999999,1.0
mp-23126,K1As4I1O6,12,2,191,238.23958634546827,3.914969994860513,19.853298862122355,1.7959823,-5.912869634166667,-1.660899759354167,0.0,2.3379,1.0
mp-14659,K4As4Se8,16,4,9,513.9751098231823,3.514308915641034,32.12344436394889,0.46303781,-4.045220629375001,-0.846891826734375,0.0,1.595899999999999,0.0
mp-1198481,K4As4W8O36,52,3,19,814.7567653968985,5.100860551924955,15.66839933455574,-0.26314884,-7.961242127307693,-2.095903530365385,1.0,2.3938,1.0
mp-557441,K1Au1I4O12,18,5,1,316.77895970479545,4.904763258976577,17.59883109471086,1.3662662,-4.798361996111111,-0.916315649291666,0.0,2.1181,1.0
mp-555085,K2Au2N8O24,36,4,14,568.5186235995521,2.82784464374915,15.792183988876449,-1.88310119,-6.323844496666666,-0.9275170098472212,0.0,2.0087,1.0
mp-561454,K2Au2S4O16,24,4,15,332.7886229208581,4.2731408980513255,13.86619262170242,-0.00505754,-6.032302114583333,-1.6768305397708332,0.0,1.46,1.0
mp-29694,K4Au4Br16,24,4,14,795.8701589502081,4.637589592522796,33.161256622925336,-0.80469438,-2.923278042916666,-1.097771732458332,1.0,0.809999999999999,0.0
mp-27181,K4Au4Cl16,24,4,7,745.1714261457379,3.368241353990244,31.04880942273908,-1.02682194,-3.285038462499999,-1.318467975374999,1.0,1.4257,0.0
mp-5309,K2Au2F8,12,1,140,204.24600047944853,5.074129225310587,17.020500039954044,-2.44622412,-4.079966013333333,-2.069855809541666,0.0,2.0753,0.0
mp-12442,K1Au1F6,8,6,166,118.80880449814094,4.892570748282526,14.851100562267618,-3.31879269,-3.805106098749999,-1.819060352156249,0.0,2.1117,0.0
mp-31045,K4Au4I12,20,4,14,804.8974507267882,5.089763555767355,40.24487253633941,0.99588837,-2.682272236999998,-0.8868143234499971,0.0,0.6459,0.0
mp-29519,K4Au4I16,24,4,14,982.7772084845273,5.026222615704563,40.94905035352196,1.13945996,-2.5521645308333323,-0.8019475003749991,0.0,0.2819,0.0
mp-997002,K2Au2O4,8,3,63,152.21112650864933,5.84885224780643,19.02639081358117,0.21081779,-4.71933650125,-1.1440430680624991,0.0,1.4264,1.0
mp-7077,K2Au2S2,6,3,63,166.1357359771586,5.359956059761335,27.68928932952643,1.1049047,-22.423628548333337,-0.8775541588541671,0.0,2.1003,0.0
mp-3592,K4Au4S20,28,3,72,716.6973361011667,3.673633652161608,25.59633343218453,1.55561989,-14.231987040714284,-0.406527112544641,0.0,1.7779,0.0
mp-9881,K2Au2Se2,6,3,63,180.4161039679286,5.798940232275909,30.06935066132144,0.7786571800000001,-3.52982603,-0.8961049631979161,0.0,1.815999999999999,0.0
mp-29138,K2Au2Se4,8,1,127,222.5130154888884,5.88035055105757,27.814126936111045,1.33203243,-3.666351818750001,-0.8170831492343761,0.0,0.8850000000000001,0.0
mp-15012,K6B6S12,24,6,167,598.9547055274228,1.896971951603248,24.956446063642616,0.65140855,-5.147245194583333,-1.125375037437499,1.0,2.7753,0.0
mp-1205075,K4Ba8Cd8Sb12,32,3,62,1145.7193588238788,5.239975615686926,35.80372996324621,3.02950481,-3.172492703125,-0.7629497402812491,1.0,0.187599999999999,0.0
mp-1205512,K1Ba2I1O6,10,0,225,167.2340202011926,5.328661912974667,16.72340202011926,2.44263141,-5.753584769,-2.135474944225,1.0,2.779,1.0
mp-23571,K2Ba8Bi6O2,18,1,140,709.9899925949874,5.7597984571965615,39.4438884774993,2.57877098,-4.1278920094444445,-1.302854963027778,0.0,0.7393000000000001,1.0
mp-557761,K2Ba8Sb6O2,18,1,140,675.2276010181977,4.769357723959427,37.51264450101098,2.73597499,-4.358397231111111,-1.45370454136111,0.0,1.022,1.0
mp-1191826,K4Ba4As4Se12,24,4,14,794.2359513210475,4.083017594288178,33.09316463837698,1.46559478,-4.374525208333334,-1.339824936963542,0.0,1.6299,0.0
mp-18038,K4Ba4Fe4O12,24,3,64,451.5735602277189,4.122445017841101,18.815565009488285,1.3939339,-6.55775580625,-2.163714324958333,0.0,0.5118,1.0
mp-1192441,K4Ba4Mn4O16,28,3,62,488.6895305167118,4.014478373635807,17.453197518453994,2.63180818,-6.798106458571429,-2.226077319311577,0.0,1.8093,1.0
mp-16780,K4Ba4Nb4S16,28,3,62,843.2191383048719,3.131885827555398,30.114969225174,1.1522897,-5.945922394999999,-1.7023383988928562,1.0,2.0731,0.0
mp-17088,K4Ba4P4S16,28,3,62,806.3870201987382,2.764801374763911,28.79953643566922,1.555991409999999,-5.04304233392857,-1.4688628399132622,0.0,2.3898,0.0
mp-18156,K4Ba4P4Se16,28,3,62,933.8926502999158,3.721450868440217,33.353308939282705,1.48196333,-4.496630859285714,-1.289564559466837,1.0,1.3932,0.0
mp-24355,K16Be16H96N48,176,3,61,1965.3558421673213,1.300183440051307,11.16679455776887,-0.89522471,-5.165767519602273,-0.596984387306817,1.0,2.8280000000000003,0.0
mp-31104,K16Bi16,32,4,14,1317.3994207253545,5.003121956310277,41.16873189766733,2.05112833,-32.7361899709375,-0.475921130312507,0.0,0.4308,0.0
mp-557437,K2Bi2P4S12,20,4,4,514.2889233176055,3.244408851988575,25.714446165880275,2.30855905,-4.878034305,-0.8097834561535701,0.0,2.2272,0.0
mp-569435,K4Bi4P8Se24,40,4,14,1121.0169056043317,4.644025039437796,28.02542264010829,1.89374828,-4.3620771765,-0.679295181559821,0.0,1.613999999999999,0.0
mp-23136,K2Bi2W4O16,24,4,15,346.5239280636538,7.128121938287872,14.43849700265224,2.18092772,-8.02977714875,-2.152997771020833,0.0,2.7107,1.0
mp-555393,K8Bi48Br8O72,136,0,230,2682.8556790037705,7.510914155180155,19.72687999267478,3.14887194,-5.844030873823529,-1.688726687779412,1.0,2.3328,1.0
mp-558501,K8Bi48I8O72,136,0,230,2740.192264626261,7.581609471931315,20.148472534016623,3.32115464,-5.80142269735294,-1.65276168307353,1.0,2.291299999999999,1.0
mp-504669,K4Bi4F24,32,0,206,545.129592827531,4.411647616652286,17.035299775860345,-3.52277023,-4.588410917187499,-2.525346131843749,0.0,2.7061,0.0
mp-30988,K2Bi2O4,8,4,15,151.89041774010815,6.123883749157043,18.98630221751352,2.13503775,-5.45149849375,-1.7221669830625,1.0,1.8514,1.0