material_id,composition,nsites,crystal_system,space_group,volume,density,density_atomic,efermi,energy_per_atom,formation_energy_per_atom,is_gap_direct,band_gap,is_oxide
mp-24119,Ca8H4N4,16,0,227,256.6767430548098,2.462779663361686,16.04229644092561,2.34437984,-7.61075007375,-0.945637455625,0.0,1.6356000000000002,0.0
mp-28553,Ca4I2N2,8,2,194,183.04477558744145,4.010938536209053,22.880596948430178,3.77030679,-4.82661147,-1.358238939999999,0.0,2.348499999999999,0.0
mp-1227569,Ca4La2Ru2O12,20,5,2,272.6117448204443,5.069455722028198,13.630587241022216,4.43774528,-7.65140567,-2.8604681265,0.0,0.428499999999999,1.0
mp-18893,Ca2Mn3O8,13,4,12,149.70349076986702,4.137001121818306,11.515653136143616,2.06815609,-7.884737693076923,-2.416973564137931,0.0,1.501399999999999,1.0
mp-19108,Ca4Mn2W2O12,20,4,14,250.93195879078365,5.491593953711478,12.54659793953918,3.60633279,-8.3594554135,-2.777544282293102,0.0,2.1817,1.0
mp-22936,Ca2N1Cl1,4,6,166,76.19094355059086,2.824901798883635,19.047735887647715,3.34110822,-9.1360318725,-1.796587630312501,1.0,2.371,0.0
mp-685352,Ca48N24F24,96,4,8,1534.5722977021555,2.9388008575083813,15.98512810106412,3.22712154,-5.830063475729166,-2.264231005729166,1.0,1.1658,0.0
mp-1214115,Ca8Nb4Cr4O24,40,4,14,477.6650480201085,4.464418512280445,11.941626200502714,2.9883217,-8.461175593499998,-3.115843763499999,0.0,2.7637,1.0
mp-1214121,Ca8Nb4Fe4O24,40,4,14,483.8328762708055,4.460345264128272,12.095821906770135,2.59932177,-8.168724696,-2.941695491999999,0.0,2.087099999999999,1.0
mp-1029832,Ca8Nb4N12,24,3,64,377.2048929874288,3.787361905648622,15.716870541142866,3.02312078,-12.299592108333334,-1.2667730977083331,1.0,1.783599999999999,0.0
mp-1227481,Ca4Nd2Ru2O12,20,4,7,268.65831785907443,5.210023698192301,13.43291589295372,3.23825478,-7.603235958499999,-2.829084382249999,0.0,0.499299999999999,1.0
mp-19114,Ca4Ni2W2O12,20,4,14,239.83055131513552,5.797794515487967,11.991527565756776,3.2293884,-7.851904143,-2.608180873,0.0,2.933,1.0
mp-23040,Ca2P1I1,4,6,166,119.46901919986468,3.308515831731006,29.86725479996617,3.35873213,-4.241553335000001,-1.503881859910714,0.0,1.6997,0.0
mp-8977,Ca8P4N12,24,3,64,301.6416344713868,3.372363756628859,12.568401436307784,5.13734734,-9.769450995833331,-1.358631708204366,0.0,2.601800000000001,0.0
mp-21137,Ca4Pb2O8,14,3,55,194.2756329801012,6.006274384912787,13.87683092715008,3.16937314,-6.481919202857138,-2.551106224285708,0.0,1.4813,1.0
mp-1227629,Ca4Pr8Mo12O42,66,3,43,894.27995960991,5.776324704543788,13.549696357725908,4.14104698,-8.610699503939394,-2.787239887020201,0.0,0.1934,1.0
mp-8710,Ca2Pt3O8,13,6,166,172.94002035294054,7.618115266071504,13.303078488687731,3.15412685,-6.555921816153841,-1.8014381423076862,0.0,1.1236,1.0
mp-16280,Ca4Sb4O14,22,3,74,280.138601912242,5.164943632742013,12.73357281419282,3.97508298,-6.858532448181814,-2.59444796863636,0.0,1.743399999999999,1.0
mp-29284,Ca8Sb8S20,36,4,14,927.6667855991934,3.465479550415696,25.768521822199816,3.92799145,-5.034094916111112,-1.371761574166666,1.0,1.6811999999999991,0.0
mp-1009733,Ca2Si1,3,0,225,92.16840794612506,1.95011765292123,30.72280264870836,2.496404,-8.15104167,-0.534257671666667,0.0,0.320999999999999,0.0
mp-22735,Ca8Sn4,12,3,62,384.80664678482026,3.432630540845451,32.06722056540169,4.06137784,-3.320879080833331,-0.647288542499997,0.0,0.0559,0.0
mp-866229,Ca2Sn1Hg1,4,0,225,112.21745015450225,5.910954958204039,28.05436253862556,4.31302333,-2.742137769999999,-0.659526856875,0.0,0.1485,0.0
mp-1029915,Ca8Sn4N8,20,3,64,350.88616863398414,4.294750158701805,17.544308431699207,5.20263046,-5.744197605,-0.804732184,1.0,0.024199999999999,0.0
mp-4747,Ca4Sn2O8,14,3,55,183.48321291778336,4.75787697463859,13.105943779841668,3.35927175,-6.85927901142857,-2.88604820642857,0.0,2.7198,1.0
mp-866503,Ca8Sn4S16,28,3,62,753.8747135589316,2.882205718964618,26.924096912818985,2.04075912,-5.188369027500001,-1.677767615357142,1.0,2.2605,0.0
mp-1214103,Ca8Ta4Cr4O24,40,4,14,477.1088044147844,5.695309033987622,11.92772011036961,3.14902149,-8.755213184499999,-3.233319104233332,0.0,2.7922,1.0
mp-1366540,Ca4Ta2Mo2O12,20,4,11,255.18937165456256,5.895943697073266,12.759468582728127,6.07289906,-8.724915427,-3.083761082733332,0.0,1.4283,1.0
mp-1029773,Ca8Ta4N12,24,3,64,376.9705147047192,5.340992901872447,15.7071047793633,3.10027895,-16.394883080833335,-1.38577105976389,1.0,1.9488999999999992,0.0
mp-1373426,Ca4Ta2V2O12,20,4,11,241.7103316753384,5.606457215118991,12.08551658376692,5.16572842,-8.719594647000001,-3.254614706733334,0.0,0.431499999999999,1.0
mp-1397126,Ca2Ti3O8,13,4,12,160.77123140841795,3.633101922188258,12.367017800647536,1.93410682,-8.731400796923076,-3.55591127,0.0,2.7744,1.0
mp-27614,Ca4V4O14,22,5,2,291.0915051542013,3.354658337289996,13.231432052463695,0.8600688200000001,-8.073052690454546,-2.908076423636363,0.0,2.9553000000000003,1.0
mp-1284741,Ca2V3O8,13,4,12,156.83159992241414,3.822024721037193,12.063969224801088,2.44184176,-8.312308246153846,-2.862569322307692,0.0,1.496299999999999,1.0
mp-17892,Ca8V4N12,24,4,15,337.9581724078324,3.4024155814066632,14.081590516993018,3.34883957,-10.672252309166666,-1.413516451874999,0.0,1.651199999999999,0.0
mp-571306,Ca4Zn4Cu2P6,16,2,194,305.0411009064921,4.000448518390185,19.06506880665576,5.22045187,-4.12228686125,-0.76274758299107,0.0,0.2778,0.0
mp-8818,Ca2Zn1N2,5,1,139,80.42332148235616,3.5839568548677283,16.08466429647123,3.047177259999999,-5.238458658000002,-0.848958886000002,0.0,0.7618,0.0
mp-1205338,Ca6Al4As8,18,4,15,436.4827018685765,3.605650457798824,24.249038992698694,3.9562151,-11.522621481666668,-1.143821291666667,0.0,1.1101,0.0
mp-29820,Ca24Al16N32,72,3,19,984.470584679406,3.106609770604501,13.67320256499175,4.26196706,-9.26593760625,-1.366595334583332,0.0,2.1954,0.0
mp-1205337,Ca6Al4P8,18,4,15,401.2144242160464,2.467476688095708,22.289690234224803,4.53466758,-9.019318495,-1.176275938544974,1.0,1.248199999999999,0.0
mp-1227905,Ca18B12N24,54,3,64,784.1174068497802,2.514359077896192,14.520692719440374,2.21216055,-9.42005625351852,-1.384212677962963,0.0,2.4714,0.0
mp-571162,Ca6Ga4N8,18,4,15,247.27587278464063,4.240150638941235,13.737548488035593,3.85255584,-9.891935857222222,-0.945776336666666,1.0,1.9148,0.0
mp-1189986,Ca6Ga4P8,18,4,15,401.5930909916271,3.172073257556365,22.310727277312616,4.10304224,-9.918516808333331,-1.028657002989417,0.0,0.9434,0.0
mp-18504,Ca12Ge8As16,36,4,14,888.6937773949969,4.22434529657248,24.685938260972137,3.2004134,-12.893985540277775,-0.9285455169444432,0.0,0.727699999999999,0.0
mp-17817,Ca12Ge8P16,36,4,14,818.6087719584725,3.159648218987409,22.739132554402016,3.80598331,-10.35377665722222,-0.924094267433861,0.0,0.9508,0.0
mp-1195188,Ca6Si16P28,50,4,14,1034.4780134602013,2.499451477402064,20.689560269204023,6.39838617,-5.410453400400001,-0.401014470999999,0.0,1.2361,0.0
mp-540696,Ca12Si8As16,36,4,14,859.1066210352141,3.6808859325035153,23.864072806533724,3.87708205,-11.81383684361111,-0.981333039166666,0.0,0.8230000000000001,0.0
mp-1194866,Ca12Si8P16,36,4,14,788.5640463717486,2.5294582663271683,21.904556843659684,4.5350868,-5.164629432499999,-0.883592787896824,1.0,0.8441999999999991,0.0
mp-680302,Ca62Sn40,102,1,140,3178.5551154789378,3.778783289755136,31.16230505371508,4.19182927,-3.447600533431372,-0.656129290686273,1.0,0.035699999999999,0.0
mp-1029921,Ca6Al6N10,22,5,2,291.20154590329133,3.093103865394368,13.23643390469506,4.4447769,-9.335867221363635,-1.430873635340908,0.0,2.5573,0.0
mp-17186,Ca12Al4As12,28,3,62,690.8189451768424,3.576554398601644,24.672105184887226,3.71144746,-11.54164871142857,-1.260281226785713,1.0,0.7300999999999991,0.0
mp-29596,Ca12Al4N12,28,4,14,409.503601044365,3.069405689101672,14.62512860872732,3.90276448,-9.119550189642856,-1.229088554821428,0.0,2.4565,0.0
mp-18300,Ca12Al4Sb12,28,3,62,837.0142670370607,4.066926439932845,29.893366679895024,4.68752178,-4.081434248571432,-0.917237221428574,1.0,0.252399999999999,0.0
mp-27294,Ca3As1Br3,7,0,221,208.78878557829063,3.458589198641642,29.82696936832724,2.35486637,-4.242435152857143,-2.014183470357142,1.0,1.6726,0.0
mp-28069,Ca3As1Cl3,7,0,221,190.72247703498627,2.625158713508255,27.24606814785518,2.49027457,-10.007190964285714,-2.252943995714286,1.0,1.8439,0.0
mp-1214087,Ca12As4I12,28,0,214,977.77868801666,3.91194040151946,34.92066742916643,2.61505968,-3.8659341260714273,-1.686082694999998,1.0,2.1921,0.0
mp-4192,Ca12As4N4,20,3,62,430.2095810510133,3.229329942502832,21.510479052550668,3.51863597,-10.282573362,-1.292340810249999,1.0,0.894,0.0
mp-30315,Ca3B1N3,7,1,123,102.72464643001317,2.797589182366571,14.67494949000188,4.22677379,-9.262457334285717,-1.284244861250002,0.0,0.5682,0.0
mp-31149,Ca3Bi1N1,5,0,221,117.67446228077743,4.843294237211277,23.53489245615549,4.42239517,-18.95342622,-1.204245116750002,1.0,0.3687,0.0
mp-1013558,Ca3Bi1P1,5,0,221,158.9968941301616,3.7617496719037433,31.79937882603232,3.37914756,-18.845626722,-1.121780490595242,1.0,0.0759,0.0
mp-28160,Ca6C6Cl4,16,3,63,296.9485538230462,2.540696979560673,18.559284613940388,3.69129857,-5.845224541875,-1.170239327187499,0.0,1.2768,0.0
mp-755287,Ca3Cd1O4,8,3,65,109.18157407744168,4.511627811561035,13.647696759680208,2.08973674,-6.17731400875,-2.831232277499999,0.0,2.52,1.0
mp-561911,Ca6Co2Se8O24,40,1,88,677.4722173860412,3.367784836559438,16.936805434651028,1.88976357,-6.40509332125,-2.07962360471875,0.0,2.9679,1.0
mp-6118,Ca6Cu6P8O32,52,4,14,635.2348985358088,3.611356147443333,12.216055741073246,2.4317422,-7.203449593846154,-2.620999984945054,0.0,0.6475000000000001,1.0
mp-21971,Ca12Fe8Ge12O48,80,0,230,969.9638248067056,4.395195175423877,12.12454781008382,3.07253125,-7.337323833875,-2.527250949624999,1.0,2.4715,1.0
mp-560990,Ca6Fe4Se12O36,58,6,167,859.4436180182392,3.83977059911897,14.817993414107573,1.29679456,-6.480890371034483,-1.8948348877262944,1.0,1.9936,1.0
mp-6672,Ca12Fe8Si12O48,80,0,230,906.380362969106,3.724006616775319,11.329754537113825,3.14801059,-7.945992171375001,-3.015575760875001,0.0,2.6417,1.0
mp-29226,Ca9Ga12O27,48,3,35,643.276852169815,4.205994531591592,13.401601086871146,1.3596729,-6.655191355833334,-2.738889307395833,1.0,2.639299999999999,1.0
mp-541062,Ca12Ga4As12,28,3,62,689.8386745674738,3.993175657206868,24.63709552026692,3.48963189,-4.297545768928571,-1.003936731785713,1.0,0.332999999999999,0.0
mp-1029943,Ca6Ga2N6,14,2,176,225.6611240312838,3.414031005652288,16.118651716520272,2.96715969,-9.538645849285714,-0.97523026875,0.0,0.8826,0.0
mp-1332615,Ca12Ge12Mo8O48,80,0,230,1033.278351840668,4.641358086700975,12.91597939800835,4.15040375,-7.622300289125,-2.574664514875,1.0,1.8503,1.0
mp-1214274,Ca12Ge12Rh8O48,80,0,230,980.473333980504,4.9857008280177855,12.255916674756302,3.49875965,-7.039001309375,-2.339499759124999,1.0,1.5931000000000002,1.0
mp-17193,Ca6Ge2O2,10,3,74,209.9891859626689,3.30343145132463,20.99891859626689,4.45001187,-4.825235687000001,-1.7076779870000012,1.0,0.140199999999999,1.0
mp-1214066,Ca6Hf6Ag2F40,54,2,176,843.0396234787843,4.50487315119623,15.611844879236743,-1.23439119,-6.764326206481481,-3.912165024691358,0.0,0.8421000000000001,0.0
mp-1214247,Ca12In8Ge12O48,80,0,230,1037.798863640451,4.862788217381733,12.972485795505635,3.22949006,-6.831742217874999,-2.592754080291666,1.0,2.6718,1.0
mp-614572,Ca12In4P12,28,3,62,677.5224618144747,3.215317483323854,24.197230779088382,4.35266541,-11.239389035714286,-1.139431833418366,1.0,0.9918,0.0
mp-744259,Ca12Mn8Ge12O48,80,1,88,971.9594883895576,4.373774936336749,12.14949360486947,2.76708836,-7.46414884175,-2.584876549293104,1.0,1.017,1.0
mp-1047495,Ca6Mn6As8O32,52,4,14,766.7506814651324,3.641487728878479,14.745205412791009,1.78751886,-7.376049030384616,-2.324098579376658,1.0,2.0539,1.0
mp-1232815,Ca6Mn2Co2O12,22,4,9,262.5016533745687,4.176329269717537,11.931893335207668,3.15157836,-7.334750401818181,-2.607477885266457,0.0,2.1034,1.0
mp-844,Ca24N16,40,0,206,747.4059775130344,2.634933159523292,18.68514943782586,2.54198068,-8.834197172749999,-0.9597206842499992,0.0,1.3497,0.0
mp-561965,Ca12Nb8Co4O36,60,4,14,742.7405278021096,4.551641392096121,12.379008796701829,3.04082928,-8.245543025833333,-3.053244660166666,0.0,2.1471,1.0
mp-29342,Ca3P1Cl3,7,0,221,184.16890190153572,2.322322966270006,26.309843128790824,2.67403279,-9.192528168571428,-2.253346153639455,1.0,1.8419,0.0
mp-27272,Ca12P4I12,28,0,214,949.4265514338972,3.721302654212342,33.90809112263919,2.88727976,-3.969942778928573,-1.683612634591838,1.0,2.216999999999999,0.0
mp-11824,Ca3P1N1,5,0,221,104.59748823288616,2.6228647853137,20.91949764657723,3.87373418,-9.054565102,-1.205423485345237,1.0,0.8055999999999991,0.0
mp-1030245,Ca54Re18N72,144,6,159,2373.8345188262,4.563947012818382,16.484961936293058,5.02240335,-7.477609304027776,-1.000356200590276,1.0,0.066999999999999,0.0
mp-1214080,Ca12Sb4I12,28,0,214,1050.9633567386788,3.935551034148621,37.53440559780996,2.98096814,-3.7305720142857153,-1.628023624999999,1.0,1.8545999999999991,0.0
mp-1013548,Ca3Sb1N1,5,0,221,114.8041449895023,3.702820690540552,22.96082899790046,4.63008327,-4.899586169999999,-1.202770444999998,1.0,0.4075,0.0
mp-1013550,Ca3Sb1P1,5,0,221,155.9331687720289,2.906845517813132,31.18663375440578,3.50858088,-4.133625522,-1.02137064092857,1.0,0.6583,0.0
mp-561991,Ca6Sc2Co2O12,22,6,167,260.9532374796124,4.074070530707727,11.861510794527838,3.3967873600000003,-7.49323990409091,-3.023198859090909,0.0,2.6504,1.0
mp-1205330,Ca6Si2O2,10,3,74,208.68400586094293,2.615034647289244,20.86840058609429,4.52800451,-4.876703399,-1.598687663999999,1.0,0.056599999999999,1.0
mp-984605,Ca6Sn2H4,12,3,63,264.3938585969303,3.026721546004121,22.032821549744188,3.33532382,-3.491257244166667,-0.6884731820833331,1.0,0.111799999999999,0.0
mp-9216,Ca12Tl8O24,44,3,55,624.7678973079968,6.644591948335474,14.199270393363564,3.39954148,-5.992557492727271,-2.315511137878787,1.0,1.204699999999999,1.0
mp-1247754,Ca3U1N4,8,1,139,118.25296486864336,5.817564482290658,14.781620608580422,4.8935003,-18.72687096875,-1.530380917499997,0.0,1.333299999999999,0.0
mp-14252,Ca6U2O12,20,6,148,305.9172173888696,4.931499685177281,15.295860869443478,2.19195857,-8.319374010499986,-3.619776442499985,1.0,2.260099999999999,1.0
mp-1163934,Ca12V8Si12O48,80,0,230,914.4247100245155,3.620010271177859,11.430308875306446,4.30915376,-8.229281139375,-3.237476242875,1.0,1.8973,1.0
mp-9029,Ca6V2N6,14,3,63,223.28566599546207,3.171001784184586,15.948976142533004,3.93688274,-10.209085817142858,-1.267555982321429,0.0,0.7644999999999991,0.0
mp-569617,Ca3Zn2Cu2P4,11,6,164,208.1678244717112,4.004727696407096,18.924347679246463,5.43957067,-4.279781288181818,-0.7891818062337651,0.0,0.042899999999999,0.0
mp-14778,Ca12Zn12Te8O48,80,0,230,1037.0451968671696,4.891115535131166,12.96306496083962,2.61682931,-6.093482992625,-2.320574276791666,1.0,2.3035,1.0
mp-1228746,Ca43Al16Pb13,72,6,166,2220.5939165462914,3.625780920652948,30.841582174254047,3.6390632,-3.119484177361111,-0.419006121388887,0.0,0.238999999999999,0.0
mp-1227669,Ca4Al6Cr1O16,27,1,82,408.5042280621713,2.561665891630804,15.129786224524862,0.5126468,-7.647048928148148,-3.227927518888888,1.0,2.8012,1.0
mp-8789,Ca4As2O1,7,1,139,159.2019150725174,3.401921734450228,22.743130724645344,3.25380141,-4.99683507,-1.8096056999999992,0.0,1.213499999999999,1.0
mp-1194887,Ca32As24,56,3,55,1453.926660497708,3.51838968175973,25.962976080316214,3.16202652,-11.688116169821429,-1.363006489464286,0.0,0.6617000000000001,0.0
mp-551873,Ca4Bi2O1,7,1,139,186.8225051541592,5.282084208645243,26.68892930773702,4.15265505,-4.566568400000002,-1.6022213792857172,0.0,0.8131,1.0
mp-2759927,Ca4Bi6O13,23,3,38,374.3602929753474,7.195485934701986,16.276534477189017,5.78339452,-21.863812456086954,-2.004504539565217,1.0,2.169199999999999,1.0
mp-5251,Ca16C4N16,36,3,62,566.5724916267853,2.677032656490874,15.738124767410705,3.04393236,-6.632505455833334,-1.009819234444444,0.0,1.790699999999999,0.0
mp-29808,Ca16Ge4N16,36,4,14,557.9855631391922,3.43994983755151,15.499598976088672,3.41916548,-9.732386645277778,-1.005702749166666,1.0,1.409,0.0
mp-1029730,Ca8Hf2N8,18,5,2,303.5565922640042,4.319646904249047,16.864255125778012,2.83893842,-13.581982947222222,-1.37980596111111,0.0,1.2158,0.0
mp-644264,Ca4Mg4Fe3H22,33,0,215,298.7862163581128,2.485597531586569,9.054127768427662,3.66408791,-3.999217768484847,-0.525035802954544,1.0,1.584499999999999,0.0
mp-2713764,Ca8Nb4S18O72,102,6,158,1720.8455233301704,2.33651999542593,16.87103454245265,-0.772397799999999,-7.132868872450981,-2.356460207990197,1.0,2.3518,1.0
mp-5380,Ca4P2O1,7,1,139,152.2721037833324,2.598231990220828,21.7531576833332,3.5526576,-5.170744518571427,-1.770557722040813,0.0,1.2714,1.0
mp-10299,Ca8Pd2O12,22,6,167,279.9215841038322,4.303524365179995,12.723708368356007,2.92705301,-6.574330808181816,-2.675235593636361,1.0,1.822699999999999,1.0
mp-13660,Ca4Sb2O1,7,1,139,180.03450348543683,3.872293519235127,25.719214783633834,4.33754022,-4.814377421428568,-1.781754134999996,0.0,0.907899999999999,1.0
mp-1019576,Ca16Si4N16,36,4,14,538.3628212472416,3.015632454232651,14.95452281242338,3.76490169,-6.422909484166666,-1.222817425277777,1.0,1.4498,0.0
mp-1214132,Ca32Si8P32,72,0,218,1672.6697022089272,2.480221769915372,23.23152364179065,4.02486017,-4.940922580972223,-1.03985461970238,1.0,1.1988,0.0
mp-1029681,Ca8Sn2N8,18,5,2,301.41376818408736,3.691680210690668,16.745209343560408,3.64196178,-5.921077766111111,-0.8782908377777771,1.0,1.929199999999999,0.0
mp-568469,Ca8Ti2N8,18,5,2,284.1396514237384,3.088087497285169,15.785536190207688,3.25321257,-6.784099876666667,-1.309544041481481,0.0,1.5392,0.0
mp-1029660,Ca8Zr2N8,18,5,2,307.3246764819375,3.32365139486545,17.073593137885418,2.69554282,-11.053394223333337,-1.340286513333334,0.0,1.2411,0.0
mp-8439,Ca10Al4Sb12,26,3,55,766.4278593453566,4.267816264645626,29.477994590206023,4.94875706,-4.112662771923075,-0.859342887307689,0.0,0.155599999999999,0.0
mp-1246246,Ca20Cu8N16,44,1,130,787.7230006511788,3.233783166206614,17.902795469344973,3.41052647,-9.297458139090908,-0.806543304090909,1.0,0.313899999999999,0.0
mp-17558,Ca10Ga4As12,26,3,55,622.948030744243,4.208288177953316,23.959539644009347,3.76777106,-4.334774090384615,-0.94208742576923,0.0,0.088999999999999,0.0
mp-1196062,Ca30I12O72,114,6,167,1514.4557103591717,4.251137704897617,13.284699213676944,5.4364731,-6.171571967105264,-2.35833214131579,0.0,2.541299999999999,1.0
mp-649479,Ca10In4Sb12,26,3,55,802.1678512880251,4.804975392754928,30.85260966492404,4.97698796,-3.935377689999998,-0.8338119725640991,1.0,0.1562,0.0
mp-558966,Ca30Re12O72,114,6,167,1486.7800728816053,5.12506854607997,13.041930463873731,3.89465329,-7.847980824298246,-2.884835567719299,0.0,2.1283,1.0
mp-571333,Ca10Si4N12,26,4,15,371.0034709658716,3.048928880683531,14.26936426791814,4.32042853,-6.767149556538461,-1.312664792692308,0.0,2.1605,0.0
mp-18670,Ca10Sn4As12,26,3,55,674.3041491424633,4.37031886283088,25.93477496701782,4.2254443,-4.407714088461537,-0.8640311419230751,0.0,0.242099999999999,0.0
mp-561360,Ca51W12N56O3,122,5,2,1924.9247016244065,4.384366768161133,15.778071324790217,3.52031075,-7.166845281229508,-1.104791237172132,0.0,1.8087,1.0
mp-866314,Ca20Al8Si8N32,68,3,60,893.7627513517448,3.140460891226038,13.143569872819777,4.94985467,-6.974332850588235,-1.381626434117646,1.0,2.7945,0.0
mp-1227139,Ca5Co3Si4O16,28,5,2,363.8846936902314,3.4020897349299872,12.995881917508266,5.21974538,-7.714625269285714,-2.989736063571428,1.0,2.702999999999999,1.0
mp-675101,Ca10Nb2N10,22,4,8,362.861407615468,3.325365812626978,16.493700346157635,3.11766365,-10.834884292727272,-1.237675519431817,0.0,0.7783000000000001,0.0
mp-1105373,Ca10P6H2,18,2,193,387.6157037200496,2.521717093162212,21.53420576222497,4.46288287,-8.535231790555555,-1.240475141964285,0.0,0.6829000000000001,0.0
mp-28879,Ca5P8,13,4,12,293.08513802771955,2.539264062615659,22.545010617516887,3.96668551,-9.304107062307692,-1.057331754908424,0.0,1.1418,0.0
mp-17564,Ca20Sb12,32,3,62,1002.0662318354448,3.749521155235865,31.314569744857653,4.6194132,-3.859818635625,-1.057943245624999,0.0,0.2412,0.0
mp-1247440,Ca20V4N20,44,3,57,677.4254716184406,3.150983595954778,15.39603344587365,4.95958933,-9.918288729545454,-1.2887616762499992,0.0,1.7935999999999992,0.0