material_id,composition,nsites,crystal_system,space_group,volume,density,density_atomic,efermi,energy_per_atom,formation_energy_per_atom,is_gap_direct,band_gap,is_oxide
mp-1203743,Cs4Lu28Se44,76,3,64,2197.116490885719,6.730183482079323,28.9094275116542,3.15093977,-5.842592890000001,-2.104970995373848,0.0,1.510499999999999,0.0
mp-12492,Cs2Lu2Cd2Te6,12,3,63,460.42063009548536,5.792752793650321,38.36838584129045,2.74316429,-3.882626441666667,-1.24602762605364,1.0,1.5415,0.0
mp-1087532,Cs2Lu2S4,8,2,194,221.2874679173401,5.583005762275544,27.66093348966752,2.38667883,-5.476225239999998,-2.049629200330457,0.0,2.2447,0.0
mp-1225938,Cs2Mg2Co2F12,18,3,74,285.08821768149545,3.845830728697557,15.838234315638635,0.23454529,-5.268738450000001,-2.918185277183909,0.0,1.9747,0.0
mp-571020,Cs6Mg6H18,30,3,59,519.1655843728438,3.075033588209561,17.305519479094794,1.32272484,-2.865838065,-0.321048684681035,0.0,2.9535,0.0
mp-560117,Cs2Mn2P8O24,36,4,4,545.1636806317798,3.068676828610609,15.143435573104997,1.40992505,-7.636565564722222,-2.575042285619867,0.0,0.9425,1.0
mp-1029801,Cs4Mn8N12,24,4,15,519.794958700722,3.6393138847586632,21.658123279196747,1.66012321,-7.739018024583333,-0.36454445966954,0.0,0.0357,0.0
mp-567499,Cs2Mn8Cl18,28,1,88,708.490221632982,3.148784738587263,25.303222201177928,1.22309805,-11.642019930714286,-1.698181232173644,0.0,1.8802,0.0
mp-23336,Cs3Mn3Cl9,15,6,166,422.315546166055,3.470400822528253,28.154369744403667,1.57825405,-13.551079429333331,-1.901258555729885,0.0,1.482899999999999,0.0
mp-1228863,Cs2Mn2Cr2F12,18,3,74,311.2374166375748,3.775565104075753,17.29096759097638,0.310188099999999,-6.548220118888889,-3.080869609731801,0.0,1.595799999999999,0.0
mp-554411,Cs4Mn4F16,24,1,85,397.8297181990802,4.405018608051214,16.57623825829501,-0.33542525,-5.898114808750001,-2.9438810816810363,0.0,0.076,0.0
mp-1228982,Cs2Mn2Fe2F12,18,3,74,313.38999543946227,3.790419746171669,17.41055530219235,0.33652506,-6.225310705,-2.889407558065134,1.0,1.1137,0.0
mp-1204512,Cs8Mn8In8Te24,48,4,15,1916.051621298652,4.75242141328571,39.91774211038858,2.21938688,-23.95302697375,-0.8493518094971271,0.0,1.2444,0.0
mp-18994,Cs4Mn4O16,24,3,62,458.34538199554953,3.649579521513815,19.097724249814565,-1.96204409,-6.466609651249995,-1.4896368375143632,0.0,2.2208,1.0
mp-1225934,Cs2Mn2V2F12,18,3,74,296.6294766807588,3.949690817818301,16.479415371153266,0.37195259,-6.55112593888889,-3.147013363065135,1.0,1.8989,0.0
mp-541428,Cs4Mo4P8O32,48,4,14,780.7899257063166,3.562618337233378,16.26645678554826,0.89687966,-7.698042139375,-2.517353575120074,0.0,2.4808,1.0
mp-1199248,Cs4Mo8P12O52,76,4,4,1179.7047006118255,3.5229071470995272,15.522430271208233,0.71383153,-7.8989736181578944,-2.469016174399145,0.0,2.2729,1.0
mp-581922,Cs4Mo12Br12Cl16,44,6,159,1456.1796814591387,3.659346639704556,33.09499276043497,0.51849811,-5.5635776402272725,-1.404492303377743,0.0,2.5467,0.0
mp-1213536,Cs4Mo12Cl28,44,6,159,1238.7769916764262,3.586533160861949,28.154022538100595,0.7739797700000001,-14.613906603181816,-1.305591730227273,1.0,2.587399999999999,0.0
mp-558321,Cs2Mo8P14O56,80,5,2,1269.3860183788115,3.091051479222304,15.867325229735147,0.56424346,-7.976434787,-2.457889766303879,0.0,2.5434,1.0
mp-554274,Cs4Mo4I4O24,36,3,33,648.1603987618529,4.629362837598639,18.00445552116258,3.56145296,-6.414925906944444,-1.640991870795019,1.0,2.6158,1.0
mp-1200253,Cs2Mo2N6O22,32,4,5,486.9084106575077,3.047910985509031,15.215887833047116,-1.66698955,-6.945423314375,-1.245671316228448,0.0,2.7732,1.0
mp-18527,Cs4Mo4P4O24,36,3,70,594.4919769923581,3.975466450372681,16.513666027565503,0.35415809,-7.587748265277778,-2.3814296835331152,0.0,2.8603,1.0
mp-3288,Cs3N3O6,12,6,152,239.55683033209817,3.72047782558346,19.963069194341514,0.32511465,-6.053319932499999,-1.267775601163792,0.0,2.3632,1.0
mp-505396,Cs4Na12Pb4O16,36,5,2,682.0931512349553,4.606732281387911,18.94703197874876,2.37651656,-4.751224906388888,-1.591488129032566,1.0,1.5078,1.0
mp-581834,Cs8Na40W16N48,112,4,14,1930.1487948114268,4.814844482651355,17.233471382244883,2.82392641,-6.563952352321428,-0.595201752789409,0.0,1.8273,0.0
mp-2741979,Cs4Na4F12,20,3,62,360.16317123292214,3.926141320950016,18.008158561646106,-1.4376248,-9.950414526,-2.340271042,1.0,0.9959,0.0
mp-998609,Cs4Na4F12,20,3,62,395.2494812826105,3.57761762083351,19.76247406413053,-2.01888667,-4.001478365,-2.403227270206896,0.0,0.029499999999999,0.0
mp-29566,Cs8Na8Ge16,32,4,14,1032.1042613446507,3.876455039607924,32.253258167020334,2.19763551,-3.0592558353125,-0.185317320571121,0.0,1.1046,0.0
mp-6973,Cs2Na2S2,6,1,129,181.43955927976768,3.440432631947764,30.239926546627945,1.30429267,-13.509852243333334,-1.273974692604168,0.0,2.413399999999999,0.0
mp-8658,Cs2Na2Se2,6,1,129,202.26983185938096,3.856099213406121,33.71163864323016,0.97207553,-15.641833736666667,-1.313769136354165,0.0,2.027,0.0
mp-5339,Cs2Na2Te2,6,1,129,243.46072370294152,3.867193712429682,40.57678728382359,1.39847709,-19.25993426,-1.229981633333333,0.0,1.9696,0.0
mp-505321,Cs4Nb4Cu8Te16,32,3,33,1063.309196105031,5.392786009813936,33.22841237828223,3.84915771,-4.675581765625,-0.702966825165229,0.0,1.1447,0.0
mp-555286,Cs1Nb1P2O8,12,4,12,201.396607984984,3.427945927671024,16.783050665415328,-0.41063958,-7.966510861666666,-2.847851053245074,0.0,2.5389,1.0
mp-562854,Cs2Nb4Bi2O14,22,3,26,357.82357403208874,5.937213972103488,16.26470791054949,1.71363336,-8.086956110000001,-2.665469837695925,0.0,2.4818,1.0
mp-641699,Cs4Nb8P4S40,56,4,7,1471.426968547698,3.025985140781723,26.27548158120889,2.78707033,-5.940914401428572,-1.09022462637843,0.0,1.518399999999999,0.0
mp-1195822,Cs4Nb8P4Se40,56,4,7,1678.704608986934,4.507854022195043,29.976868017623826,2.4863116,-5.318721134285714,-0.926922851981108,0.0,0.8597999999999991,0.0
mp-573274,Cs4Nb12S4Br28,48,4,14,1385.8257027533934,4.807386361871767,28.87136880736236,2.29894339,-5.391610064999999,-1.490870231429597,0.0,0.038,0.0
mp-569853,Cs2Nb8Br22,32,3,51,915.395192659622,5.019284035845955,28.60609977061319,2.62074739,-5.102271355312499,-1.394795754353447,0.0,0.286999999999999,0.0
mp-582146,Cs2Nb8Cl22,32,3,51,789.5337937710856,3.762664518423764,24.672931055346425,3.18647279,-13.5390588825,-1.556460165468748,0.0,0.51,0.0
mp-1213080,Cs2Nb2Cl12,16,4,15,482.7360565657349,3.016952671486727,30.17100353535844,1.0669083,-12.50426881,-1.659623680624999,1.0,2.332099999999999,0.0
mp-1030663,Cs16Nb16N32,64,3,61,1402.181682736924,4.809496159853442,21.90908879276444,2.08314424,-7.8402966671875,-0.918837142101294,0.0,1.636499999999999,0.0
mp-1196826,Cs4Nb4S8O36,52,3,62,903.464297391815,3.190246253985458,17.374313411381056,1.97105878,-7.185375376153847,-2.276325315358091,0.0,2.7579,1.0
mp-1194659,Cs4Nb4V8O32,48,4,11,878.6317082190396,3.444861336788951,18.304827254563325,-1.04025888,-8.336302376458333,-2.606237143929598,0.0,2.4885,1.0
mp-1225952,Cs2Nb2W2O12,18,3,74,294.7988284137535,5.696417774420121,16.37771268965297,0.64005316,-8.591782770000002,-2.630096228850576,0.0,2.8953,1.0
mp-1190370,Cs2Nd4Ag6Te10,22,3,63,731.8648325063333,6.275791785733889,33.26658329574242,3.66206056,-4.252179837272727,-1.09857847936259,0.0,1.0241,0.0
mp-862772,Cs2Nd4Cu2Se8,16,3,63,472.3314702655845,5.630448128753898,29.52071689159904,2.8747521,-5.292894383125,-1.727003756128771,0.0,0.8344,0.0
mp-1103178,Cs2Nd2Cd2Te6,12,3,63,487.6779726491035,5.25974702458608,40.63983105409196,2.38824541,-3.983225065,-1.305549586192528,1.0,1.5147,0.0
mp-510065,Cs2Nd2Hg2Se6,12,3,63,411.838592611369,5.762695472659977,34.319882717614085,1.41706696,-4.211289839166667,-1.465701260281071,1.0,1.353899999999999,0.0
mp-553308,Cs2Nd2O4,8,2,194,161.9293496126839,6.3404124057903815,20.241168701585487,2.06084953,-6.739574861249999,-2.846563108038792,0.0,2.9366000000000003,1.0
mp-1095172,Cs2Nd2S4,8,2,194,250.9845979483906,4.515851140365055,31.373074743548823,1.937653469999999,-19.7382919825,-2.089176945781251,0.0,2.2185,0.0
mp-11742,Cs1Nd1Te2,4,6,166,169.1333355462815,5.226549444139719,42.283333886570375,2.66591747,-28.020524755,-1.680297104375,0.0,1.291999999999999,0.0
mp-12342,Cs2Nd2Zn2Te6,12,3,63,472.6481417798777,5.096741610173374,39.38734514832314,2.50981049,-4.042052133333333,-1.314421084525861,1.0,1.3651,0.0
mp-22950,Cs2Ni2Cl6,10,2,194,267.3322484164909,3.70154110632652,26.733224841649093,1.51774018,-12.641281607,-1.5317842365,0.0,0.8049000000000001,0.0
mp-1102595,Cs2Np2Ag2S6,12,3,63,340.14196352282414,5.604115173632386,28.34516362690201,4.0954575,-6.200126459166667,-1.347830853761973,0.0,0.076299999999999,0.0
mp-1213571,Cs4Np4Mo4O24,36,4,14,709.2254768266984,5.261854655899866,19.70070768963051,2.28325192,-8.73487560611111,-2.69163411815613,0.0,0.3369,1.0
mp-1201281,Cs4Np4Mo4O28,40,3,52,816.8220006306263,4.698835106459909,20.42055001576566,1.27356423,-8.435464359000001,-2.501750919340517,1.0,1.3526,1.0
mp-2037681,Cs2O4,6,3,71,140.6944980519223,3.892546706799327,23.44908300865372,1.07996894,-4.611815541666666,-1.010515681551724,0.0,0.414299999999999,1.0
mp-734596,Cs2Os4O18,24,4,9,409.744206688392,5.328065799023181,17.072675278682997,-0.48231784,-7.158651129583334,-1.500787673304599,0.0,0.8738999999999991,1.0
mp-561383,Cs4Os4N4O12,24,3,62,534.1114476115797,4.789566696717669,22.25464365048249,-0.89130747,-7.203421095833334,-1.317170135775861,0.0,2.9029,1.0
mp-1201790,Cs4P28,32,3,57,878.5763058071049,2.643944226993856,27.455509556472027,4.38233692,-11.2617148653125,-0.246341467291665,1.0,1.2774,0.0
mp-562569,Cs4P4Pb4S16,28,3,62,806.7366713694838,4.11124125922633,28.81202397748157,2.35395651,-4.775584410357148,-0.977079205256866,1.0,2.3363,0.0
mp-1193277,Cs4P4Pb4Se16,28,3,62,923.148698326338,4.942459182782202,32.96959636879778,2.04710985,-4.262721530357143,-0.831329519453289,1.0,1.5613,0.0
mp-504838,Cs2P2S6,10,3,71,315.3575746673914,2.7388807315107133,31.535757466739145,0.8520355,-12.475561895,-0.8324565832827361,0.0,1.9062,0.0
mp-1225967,Cs4P4Se24,32,4,7,1040.204414421916,4.071602890343417,32.506387950684875,1.18860544,-15.43159129,-0.434104952793898,0.0,1.6167,0.0
mp-1183920,Cs1Pa1O3,5,0,221,86.93019019772653,7.86886217827183,17.386038039545305,3.47557985,-8.516854444,-3.457622890931035,0.0,2.972999999999999,1.0
mp-567681,Cs4Pb4Br12,20,3,62,769.2071757466882,5.006763123039218,38.460358787334414,0.17027543,-3.5406624405,-1.634369591431033,0.0,2.8808,0.0
mp-1539667,Cs2Pb2Cl6,10,1,127,356.9651386649454,4.153748273575659,35.69651386649454,0.70381024,-3.920044919000005,-1.88679431093104,1.0,2.7365,0.0
mp-540839,Cs4Pb4I12,20,3,62,930.846658290349,5.143480376565951,46.542332914517445,1.32446832,-3.101759242000002,-1.263226744931036,0.0,2.5181,0.0
mp-1213382,Cs2Pr2Nb12Br36,52,6,163,1579.731558013003,4.771231186831909,30.3794530387116,2.16552443,-5.203002232115385,-1.519297736012379,1.0,0.9777999999999992,0.0
mp-1190295,Cs2Pr4Ag6Te10,22,3,63,748.1682773783937,6.109433089545593,34.00764897174517,3.42002676,-4.254820561363636,-1.096251198756529,0.0,1.1305,0.0
mp-1190682,Cs2Pr6C2I12,22,5,2,905.8505433384267,4.872693186821149,41.17502469720122,3.51581103,-4.595713182727272,-1.535064716559561,0.0,0.7084,0.0
mp-1213658,Cs4Pr24Fe4I40,72,3,62,3113.977479017809,4.912844453432804,43.24968720858068,3.57895927,-4.394864235,-1.428700141647509,1.0,0.2107,0.0
mp-11118,Cs2Pr2Cd2Se6,12,3,63,419.63879690257176,4.931330045748284,34.96989974188098,1.08571638,-4.4405618958333335,-1.582029620558848,1.0,1.9664,0.0
mp-12494,Cs2Pr2Cd2Te6,12,3,63,494.8504416688828,5.161133372156913,41.23753680574023,2.36260965,-3.987831659166667,-1.3056021760536392,1.0,1.5231,0.0
mp-7211,Cs2Pr2Hg2Se6,12,3,63,416.7968501090122,5.667573436836008,34.73307084241768,1.40535786,-4.2115200875,-1.461377504308849,1.0,1.3367,0.0
mp-9037,Cs2Pr2S4,8,2,194,255.4051852888868,4.394333046591848,31.925648161110843,1.901301999999999,-19.72293280125,-2.077330918072913,0.0,2.228399999999999,0.0
mp-12341,Cs2Pr2Zn2Te6,12,3,63,477.9406306429698,5.017133218160017,39.82838588691416,2.49019529,-4.0435365425,-1.311351489386973,1.0,1.3607,0.0
mp-573316,Cs2Pt4Se6,12,6,166,345.9822238642118,7.2947816889734,28.83185198868432,2.329897899999999,-29.289021151666663,-0.7859265695312461,1.0,1.0495,0.0
mp-680370,Cs4Pu4P8S28,44,4,14,1199.3194006463807,3.673579553789219,27.25725910559956,3.8499035,-6.124900714318182,-1.084412162062805,0.0,0.1506,0.0
mp-568508,Cs8Rb8Mn16Cl48,80,2,194,2176.3068262045463,3.302098377539271,27.203835327556828,2.13980718,-4.969991770124999,-1.839611867426723,1.0,1.4203,0.0
mp-8202,Cs2Rb4Pd2F10,18,1,127,391.99230410892034,4.280657803599771,21.777350228273352,-1.32177274,-4.471713472777778,-2.514136872739464,0.0,2.3387,0.0
mp-572546,Cs4Re4Cl16O8,32,4,14,911.7229690496046,3.591083451451047,28.491342782800142,-0.29790148,-5.56059617875,-1.7298230552693972,0.0,1.4967,1.0
mp-683890,Cs4Re12S16Br8,40,4,14,1133.1244447115512,5.742193152381058,28.32811111778878,1.42427105,-6.95321182625,-1.145246672965517,0.0,1.8417,0.0
mp-1202357,Cs4Re12Se16Br8,40,4,14,1210.946562217819,6.402062107076759,30.27366405544548,1.44273579,-6.584564493499999,-1.033578576153017,0.0,1.4231,0.0
mp-680185,Cs4Re24Se32I12,72,4,14,2136.1112539405417,7.035284298105872,29.6682118602853,2.55385297,-6.817204793888888,-0.80964965602251,0.0,1.2321,0.0
mp-27783,Cs8Re8Br32,48,3,61,1741.0774026169531,4.873458449278302,36.2724458878532,0.31199689,-4.527087875208335,-1.209774888900864,1.0,0.4053,0.0
mp-29842,Cs2Re2F16,20,1,129,310.6666135773861,5.036134457728252,15.533330678869303,-2.85396562,-12.6342317475,-2.381502616749999,0.0,1.7181000000000002,0.0
mp-557451,Cs4Re4O4F24,36,4,14,656.3739028639418,4.544677128730507,18.23260841288728,-2.57859511,-5.971800945833333,-2.662115719961686,1.0,2.9741,1.0
mp-1199798,Cs24Re24S48,96,3,62,2894.329703410908,5.276986067837814,30.14926774386361,2.90548491,-6.453222060833333,-1.045019332622126,0.0,1.2522,0.0
mp-8015,Cs1Ru1F6,8,6,166,145.03669244592913,3.983894785938133,18.12958655574114,-2.05983038,-11.02073785625,-2.359593356875001,1.0,1.235199999999999,0.0
mp-29266,Cs2S2,4,3,71,172.99266992412373,3.167069221311618,43.24816748103093,1.28981424,-17.67915287,-1.107426828906248,0.0,1.726,0.0
mp-1191332,Cs2S4O12F4,22,4,15,422.5540983961689,2.601730861717828,19.20700447255313,-1.63253409,-5.851857106818182,-1.9700236990595608,0.0,0.303299999999999,1.0
mp-1188913,Cs4S12,16,5,2,510.98964781934046,2.977987927380984,31.93685298870878,1.78633139,-12.957845295,-0.654482733359374,0.0,1.6567,0.0
mp-2761130,Cs4S4O16,24,4,15,447.3711299915876,3.399507654330719,18.640463749649484,-1.00675268,-6.040014226666666,-1.900317367025861,0.0,0.6397,1.0
mp-573514,Cs8Sb8,16,3,19,775.8403035427021,4.360504911769052,48.49001897141888,2.75330356,-26.0024922475,-0.595107882500002,0.0,0.5557999999999991,0.0
mp-554822,Cs1Sb1P2O8,12,6,147,196.3334166894587,3.760385052430832,16.361118057454892,0.84697554,-7.0901563175,-2.469188492411739,0.0,2.958,1.0
mp-1197959,Cs4Sb8P4O32,48,4,12,777.7251832134937,4.57253209493312,16.202607983614453,3.33467823,-6.737145080833334,-2.223383279524836,0.0,1.9806,1.0
mp-567583,Cs2Sb2Cl12,16,4,15,494.0669087275783,3.141714076585718,30.87918179547364,-0.78633221,-3.554580028750001,-1.5385505774568982,1.0,2.0825,0.0
mp-510273,Cs2Sb2O4,8,4,15,191.62734539415547,4.968155127322778,23.95341817426944,2.51467098,-5.587411512500001,-1.854186307413794,0.0,2.3758,1.0
mp-561639,Cs4Sb4S8,16,4,14,536.8418348763533,3.94434462996929,33.552614679772084,2.19058931,-17.5753251225,-0.8541333989062531,0.0,1.736399999999999,0.0
mp-28701,Cs4Sb4S24,32,4,14,974.5769848877252,3.04687286618815,30.45553077774141,1.959737399999999,-12.820949383125,-0.442853980234374,1.0,1.8204,0.0
mp-2969,Cs4Sb4Se8,16,4,14,591.159648971551,4.63573088848448,36.947478060721934,1.8773871,-20.694799769375,-0.8353274714062481,0.0,1.1399,0.0
mp-1225923,Cs2Sb2Te2O12,18,3,74,278.0568401154072,5.712303202573927,15.447602228633732,2.922492489999999,-6.029770522777778,-1.8222093301468711,0.0,0.9535999999999992,1.0
mp-1540169,Cs2Sb2W2O12,18,3,74,286.02995346304704,6.206071745312252,15.89055297016928,4.47882124,-7.471439328333334,-2.173342098295019,0.0,0.1143,1.0
mp-607477,Cs1Sc3Cu2Te6,12,4,12,356.2728025909046,5.408770374622063,29.68940021590872,4.99606272,-5.090855795833334,-1.177219663721264,0.0,0.006999999999999,0.0
mp-754826,Cs2Sc2O4,8,0,227,184.51125913256803,3.777341310414576,23.063907391571004,0.76934316,-7.26076491,-2.976672738663793,0.0,2.9595,1.0
mp-2014596,Cs2Se2Br6,10,4,4,388.5219371471383,3.860075474665668,38.85219371471383,1.34186391,-16.725315327,-0.8859848233125001,0.0,1.833,0.0
mp-1370,Cs32Si32,64,0,218,2529.0599289107195,3.382528180601402,39.51656138922999,2.29083179,-17.09282061984375,-0.151711822343749,1.0,1.5634,0.0
mp-558426,Cs4Si4Bi4S16,28,4,14,843.3134639081819,3.924199764110301,30.118337996720783,1.91313441,-4.923926465714287,-1.098673868522168,0.0,2.4826,0.0
mp-1226548,Cs8Si8Sb8O40,64,3,40,1060.810989974659,4.542616176881629,16.575171718354046,4.32598154,-6.91891974875,-2.518657015581897,0.0,2.191699999999999,1.0
mp-570957,Cs4Si4Te12,20,4,9,808.531875100832,4.467287672887058,40.4265937550416,2.68642016,-22.607318027,-0.580539921999999,1.0,1.261299999999999,0.0
mp-1213498,Cs2Sm2Nb12Br36,52,6,163,1633.9267888916663,4.632188247822636,31.42166901714743,2.0023888,-5.198791430576923,-1.51804406229443,1.0,0.9853,0.0
mp-1190516,Cs2Sm4Ag6Te10,22,3,63,729.0111695664398,6.356100166344973,33.13687134392908,3.4976234,-4.232806172727272,-1.088215959817136,1.0,1.1579,0.0
mp-16445,Cs2Sm4Cu2Se8,16,3,63,462.14278572454384,5.842511531826939,28.88392410778399,2.92634165,-5.2800217225,-1.726521419878771,0.0,0.9508,0.0
mp-510062,Cs2Sm2Cd2Se6,12,3,63,406.5716687805346,5.167033420505383,33.880972398377885,1.2171174,-4.434077944166667,-1.588359889447737,1.0,2.0217,0.0
mp-12497,Cs2Sm2Cd2Te6,12,3,63,482.2046332049878,5.3615849860927245,40.18371943374898,2.47561128,-3.968276789999999,-1.298861527442528,1.0,1.5693,0.0
mp-556979,Cs4Sm4Ge4S16,28,3,19,817.8784838428891,3.932005369797371,29.20994585153176,1.50703109,-5.3899055435714285,-1.560901282093595,0.0,2.4631,0.0
mp-1192812,Cs4Sm4Ge4Se16,28,3,19,936.6114351287194,4.763809297449042,33.45040839745427,1.19296446,-4.890402670357142,-1.428511603075738,1.0,1.6665,0.0
mp-7212,Cs2Sm2Hg2Se6,12,3,63,405.6387967697846,5.900862462338827,33.80323306414872,1.37331062,-4.201202656666667,-1.463874294031072,1.0,1.3625,0.0
mp-574651,Cs2Sm2Mn2Se6,12,3,63,393.0314645296725,4.859400324613423,32.75262204413938,1.979207339999999,-5.7769611,-1.564242194936243,0.0,0.531199999999999,0.0
mp-7977,Cs2Sm2O4,8,2,194,156.5949418940752,6.686149632297675,19.5743677367594,1.95400077,-6.770798424999999,-2.890176996163792,0.0,2.9281,1.0
mp-9082,Cs1Sm1S2,4,6,166,122.22314935063176,4.719758265958391,30.55578733765794,1.9729687,-5.52860823,-2.052787519913793,0.0,2.1397,0.0
mp-561635,Cs4Sm4Si4S16,28,3,19,780.1786354456132,3.7426872594029232,27.863522694486186,1.92693467,-5.6745759675,-1.730958823879309,0.0,2.8414,0.0
mp-505709,Cs2Sm2Zn2Se6,12,3,63,387.8031364760921,5.014585760378163,32.316928039674345,1.34223992,-4.5384141575,-1.64274053278107,1.0,2.042399999999999,0.0
mp-12343,Cs2Sm2Zn2Te6,12,3,63,464.6821442778108,5.227839797836507,38.723512023150896,2.62254394,-4.033784105833334,-1.314413273275862,1.0,1.4086,0.0
mp-571056,Cs32Sn32,64,0,218,3164.944576612693,4.2244509756296384,49.452259009573325,3.06918126,-25.33476240109375,-0.407444011093751,1.0,1.2659999999999991,0.0
mp-1247749,Cs4Sn4Br12,20,3,62,783.0209314899195,4.167798818969302,39.15104657449597,2.52701838,-3.537762077500002,-1.572084271431037,1.0,0.9682,0.0
mp-27394,Cs4Sn4Cl12,20,4,14,707.7549033566642,3.3595277653632403,35.38774516783321,0.35047602,-15.2399739675,-1.577583273000002,1.0,2.9154,0.0
mp-614013,Cs1Sn1I3,5,0,221,248.41075007279017,4.226897498662958,49.68215001455803,2.56463662,-3.079453774,-1.181536319931034,1.0,0.449999999999999,0.0
mp-1193634,Cs4Sn4P4S16,28,3,62,808.1199126804063,3.376880878482484,28.861425452871654,2.63846132,-4.757233206428571,-0.9163101748997172,0.0,2.1236,0.0
mp-561710,Cs2Sn2S6,10,5,2,322.2707978105111,3.584270415288076,32.22707978105111,1.95954716,-15.630819652,-0.8388928466875001,0.0,1.6557,0.0