material_id,composition,nsites,crystal_system,space_group,volume,density,density_atomic,efermi,energy_per_atom,formation_energy_per_atom,is_gap_direct,band_gap,is_oxide
mp-7909,Al2Cd1Te4,7,1,82,231.64033150563444,4.851529037055572,33.09147592937635,3.050266,-19.901839472857144,-0.582113531428575,1.0,1.6245,0.0
mp-1228975,Al2Cr3Cu1S8,14,6,160,248.05609191194992,3.548046548801847,17.718292279424993,5.20893635,-6.369691330714287,-1.1085215249999991,0.0,0.1357,0.0
mp-1214864,Al4Ga4Bi4O18,30,3,55,386.0622675408919,6.497978846273172,12.868742251363065,6.19836264,-6.859021493,-2.468417401666667,1.0,2.7318,1.0
mp-27346,Al8Hg12Cl32,52,4,14,1540.3987770841748,4.050481336087311,29.623053405464898,-1.20690795,-17.478283774230768,-1.26388935826923,0.0,2.5631,0.0
mp-7906,Al2Hg1S4,7,1,82,159.27341271374962,3.9910997012314633,22.753344673392803,2.15172338,-4.584941332857149,-1.105761051785721,0.0,2.0244,0.0
mp-3038,Al2Hg1Se4,7,1,82,183.20425656780225,5.16996714897972,26.172036652543174,1.64730415,-17.979266177142858,-0.825231304821429,1.0,1.4253999999999991,0.0
mp-7910,Al2Hg1Te4,7,1,82,230.80986890588417,5.503380227317927,32.97283841512631,3.22883458,-23.97713268,-0.477004048214285,1.0,1.1108,0.0
mp-7188,Al2Os1,3,1,139,41.33040791395677,9.81098820335959,13.77680263798559,9.1716797,-22.820100166666663,-0.670291663333335,0.0,0.289899999999999,1.0
mp-1103722,Al4Pb2S8,14,3,66,327.21407690849406,3.952471967194888,23.372434064892435,3.28569403,-5.198300248571438,-1.232980677142865,1.0,2.5904,0.0
mp-675374,Al4Pb2Se8,14,3,66,372.328146574432,5.146729625757556,26.59486761245943,2.68180817,-19.08576364214285,-0.943539114464284,1.0,1.9965,0.0
mp-10910,Al4Ru2,6,3,70,82.4376362145777,6.245654124184848,13.739606035762948,9.0433687,-13.744011246666666,-0.7811005950000001,0.0,0.086399999999999,0.0
mp-1196459,Al16Sb40Se48Br72,176,4,13,6352.433345248427,3.880584619481434,36.09337127982061,0.88466222,-3.915068207613636,-1.013061592116477,1.0,1.801899999999999,0.0
mp-11674,Al4Se6,10,4,9,252.55345149639967,3.824586748501788,25.255345149639968,2.75585637,-12.288599007,-1.0088235364375011,0.0,1.8004,0.0
mp-29502,Al16Te24,40,4,14,1396.1935742271555,4.155653863056867,34.90483935567889,3.84845012,-18.50219873175,-0.559024813749999,0.0,1.854,0.0
mp-9254,Al2Te5,7,4,12,240.2763278172873,4.782126199336237,34.3251896881839,3.66655846,-20.48055688428571,-0.401939997142855,0.0,1.046099999999999,0.0
mp-568443,Al4V2Cl16,22,4,15,603.888887599563,2.136707245916147,27.449494890889227,1.86282521,-8.649564132727273,-1.670174717272728,0.0,0.8418000000000001,0.0
mp-4842,Al4Zn2S8,14,0,227,250.64764281935976,3.281121926450817,17.903403058525697,4.2853273,-8.977781778571428,-1.189953836607142,0.0,2.4934000000000003,0.0
mp-7907,Al2Zn1Se4,7,1,82,169.04316750638472,4.2751604049269805,24.14902392948353,2.00639463,-4.348565547142856,-1.100773949910713,1.0,2.1529,0.0
mp-7908,Al2Zn1Te4,7,1,82,216.63505529356985,4.827294159882309,30.94786504193855,3.5591303,-3.751240675714285,-0.7049379838095231,1.0,1.625099999999999,0.0
mp-1228446,Al6B2C2,10,2,194,120.36064717516008,2.863195325500272,12.036064717516007,7.97204476,-5.52696833,-0.098011379333333,0.0,0.453,0.0
mp-1228599,Al18B6C18,42,2,185,476.6806647509144,2.670926387522258,11.349539636926531,5.95087627,-6.606801873095239,-0.09221391047619,0.0,1.8202999999999991,0.0
mp-23426,Al8Bi4O18,30,3,55,356.7483355293301,6.236129956572592,11.891611184311005,4.48473545,-7.344153459666663,-2.857885393999998,1.0,2.800199999999999,1.0
mp-1591,Al4C3,7,6,166,79.90244024318747,2.991752250158876,11.414634320455352,7.3085706,-6.186745705714287,-0.09127430607143,0.0,1.3154,0.0
mp-1228721,Al4In1Ag1Se8,14,4,5,360.5472584948864,4.431940641130558,25.753375606777603,3.16255508,-14.120981372857145,-0.8813140376785701,0.0,0.6835,0.0
mp-35267,Al5Cu1S8,14,0,216,245.9010213567228,3.072380860125777,17.564358668337338,5.79861618,-8.937086365,-1.166566343035714,0.0,1.4217,0.0
mp-9203,Al6Cd4S1O12,23,0,217,357.9746858888572,3.87606053268021,15.5641167777764,0.53113891,-6.617809923913042,-2.71227134271739,0.0,2.7127,1.0
mp-9535,Al6Cd4Te1O12,23,0,217,374.095220807742,4.133095173099382,16.265009600336608,0.8628842600000001,-6.562885231739131,-2.700609853768116,0.0,2.5652,1.0
mp-530331,Al36Sn6Te60,102,6,152,3408.041085016975,4.550638511621933,33.412167500166426,2.4391483943285603,-4.101457760392157,-0.6946291857843131,1.0,1.439,0.0
mp-28759,Al14Tl6S24,44,4,4,1089.1937878605677,3.618692833357297,24.75440426955836,2.6113776,-5.034408739545455,-1.261965013636364,0.0,2.7961,0.0
mp-1228228,Al7Cr1Bi4O18,30,4,3,374.43214758961045,6.052542905782574,12.481071586320349,4.46512689,-7.450693378666667,-2.767509591666667,0.0,2.5541,1.0
mp-13875,Al32Pb36O84,152,0,205,2444.182021705053,6.567308998631525,16.080144879638507,6.38632704,-6.92339052625,-2.521137595328947,1.0,2.8336,1.0
mp-1228964,Al1Ag1P2Se6,10,4,5,253.9287203629912,4.385035805906184,25.39287203629912,2.59070035,-4.426495843,-0.5870029005014871,0.0,1.6205999999999992,0.0
mp-9631,Al2Ag2O4,8,2,194,87.85832335519181,6.30693839740901,10.982290419398977,4.20479798,-6.425985976249988,-2.304877096666654,0.0,1.4090999999999991,1.0
mp-5782,Al2Ag2S4,8,1,122,169.43391449112187,3.900206524762422,21.17923931139024,2.88185789,-11.94301553125,-0.9035221214062492,1.0,1.8992,0.0
mp-14091,Al2Ag2Se4,8,1,122,196.7610945432424,4.941582476882665,24.595136817905296,2.18218391,-14.92098608625,-0.7432121020312501,1.0,1.135199999999999,0.0
mp-1228963,Al1Ag1Sn1Se4,7,1,82,198.2872589677156,4.768387617941063,28.32675128110223,2.05262524,-4.281377921428572,-0.769702025148809,1.0,1.1072,0.0
mp-14092,Al2Ag2Te4,8,1,122,245.06077562489887,5.285977139432593,30.632596953112365,3.47746818,-20.1698675125,-0.439261488750002,1.0,1.0469,0.0
mp-2172,Al1As1,2,0,216,45.71109524739804,3.701817725841658,22.855547623699017,3.58128419,-11.346857435,-0.627042776249999,0.0,1.503699999999999,0.0
mp-567734,Al4As12Se16Cl16,48,4,15,1627.1078969632042,2.895895612638831,33.89808118673342,-0.17957194,-4.291596732916667,-1.03045002140625,1.0,2.1167,0.0
mp-558360,Al2As6S10Cl8,26,4,11,782.773498471812,2.349964386581123,30.106673018146616,0.2144534,-4.529546108076923,-1.003245149230768,0.0,2.2534,0.0
mp-558137,Al8B8Pb8O32,56,3,60,650.1227346639857,6.313764081542392,11.609334547571176,4.15917685,-7.567267224107142,-2.720201696845237,1.0,2.940799999999999,1.0
mp-561350,Al4Bi4S4Cl16,28,1,82,835.8509015210963,3.256818015369465,29.851817911467723,0.03447033,-4.318524574642857,-1.580218730714286,0.0,2.8305,0.0
mp-637206,Al4Bi4Se4Cl16,28,1,82,857.5358156692063,3.5376926968141813,30.62627913104308,0.1107556,-4.228496941071429,-1.581969395691965,0.0,2.542399999999999,0.0
mp-628665,Al4Bi4Te4Cl16,28,1,82,929.0154561340188,3.613258155161407,33.179123433357816,0.53101179,-4.132970057857141,-1.536814738809524,0.0,2.1634,0.0
mp-607454,Al4C12N12Cl24,52,5,2,1163.5573576453032,1.813882820501972,22.376103031640447,-0.71699648,-6.005148590192307,-0.809943794615383,0.0,2.5682,0.0
mp-1102961,Al2Cd2Cl8,12,5,2,352.70173723853594,2.647852691095329,29.39181143654466,-0.42540743,-10.038171610833333,-1.463698009166666,0.0,2.761,0.0
mp-1229097,Al2Cr2Fe2O8,14,3,74,147.90088334532493,4.464459791699671,10.564348810380352,5.22066652,-8.494336182142858,-2.542837820714286,0.0,1.4767,1.0
mp-1228984,Al1Cu1P2Se6,10,6,146,236.87285777660955,4.390067296366625,23.68728577766096,3.68211813,-4.523998834999999,-0.55887899333482,1.0,0.8799,0.0
mp-1102536,Al2Cu2Br8,12,1,112,348.6686108464379,3.90662851528565,29.05571757053649,1.26599256,-3.6123095999999872,-1.213548159999986,0.0,2.1451,0.0
mp-28020,Al2Cu2Cl8,12,1,112,294.7232745098301,2.618109351579225,24.560272875819177,1.61529712,-8.35062801,-1.319186356666666,0.0,2.5112,0.0
mp-1228980,Al1Cu1Ge1Se4,7,1,82,167.8665791508262,4.73835074893937,23.98093987868946,3.73763322,-4.521867837142858,-0.7430883706249991,1.0,0.8904999999999991,0.0
mp-3098,Al2Cu2O4,8,2,194,79.06978600731826,5.146334199359751,9.883723250914782,6.09085843,-6.8528004887499865,-2.417624361249986,0.0,1.8148,1.0
mp-4979,Al2Cu2S4,8,1,122,146.42766229382923,3.5077372781402403,18.303457786728654,5.20145593,-9.37487505,-0.962651926406248,1.0,1.6756,0.0
mp-8016,Al2Cu2Se4,8,1,122,172.5678946576471,4.781385838476759,21.57098683220589,3.87614444,-12.30683789125,-0.7563341932812491,1.0,0.8921999999999991,0.0
mp-1228961,Al2Cu2Sn2S8,14,3,74,271.5089317769453,4.128246124787186,19.393495126924662,5.48935852,-4.96781685,-0.909560760714285,0.0,0.712699999999999,0.0
mp-1229027,Al1Cu1Sn1Se4,7,1,82,181.5890527539548,4.801565692513809,25.941293250564968,3.48115986,-4.463928064285715,-0.772785169196429,1.0,0.551299999999999,0.0
mp-8017,Al2Cu2Te4,8,1,122,218.71279783515297,5.249753008760489,27.33909972939412,4.91045025,-17.52852994375,-0.425194206250001,1.0,1.0186,0.0
mp-17477,Al4Fe4P4O20,32,4,14,423.5165893149473,3.039389688781344,13.234893416092104,2.37773372,-8.0470451153125,-2.750685666517856,0.0,0.5231,1.0
mp-1228891,Al1Ga1As2,4,6,160,91.21657145338672,4.488243147095224,22.80414286334668,3.24524361,-12.434816665,-0.537332601249999,1.0,0.700499999999999,0.0
mp-23933,Al2H6,8,6,167,65.66805385043641,1.517482771032696,8.208506731304551,1.01155368,-4.34799096625,-0.073632082812499,0.0,2.197699999999999,0.0
mp-568001,Al8Hg16Sb8Cl32,64,3,60,1924.7967233796928,4.774116874039054,30.0749488028077,0.56434627,-20.54745566140625,-1.074482824531251,0.0,1.1967,0.0
mp-27935,Al2I2Cl12,16,4,4,489.46335736234505,2.487460068647398,30.59145983514657,-0.95823993,-3.370098035625,-1.32499238,0.0,2.291,0.0
mp-504482,Al6In6S18,30,2,169,713.3884528706352,3.323848829280726,23.77961509568784,3.0539757,-11.685050144666668,-1.001912953354167,0.0,2.081299999999999,0.0
mp-862787,Al6In6Se18,30,2,169,815.5387502722511,4.62623389035123,27.18462500907504,2.50975971,-15.312994939,-0.8639210584375001,1.0,1.6333000000000002,0.0
mp-1214829,Al2Ni2Ag4F14,22,3,74,285.3214290767629,5.056321498261953,12.969155867125586,0.73459213,-5.092989166818182,-2.4922114857575752,0.0,1.9697,0.0
mp-1550,Al1P1,2,0,216,40.983457924417976,2.348192310671479,20.491728962208988,4.36978098,-8.604336105,-0.737248783988095,0.0,1.6294,0.0
mp-28046,Al8P16I72,96,3,61,4669.546937631664,3.5022475308334533,48.64111393366317,0.58774509,-2.9355209029166662,-0.577801201607142,1.0,1.686,0.0
mp-568423,Al4P4I32,40,3,33,1931.8606688980203,3.689863789335752,48.296516722450505,0.7478829,-2.77911623425,-0.6438012067142851,0.0,1.4878,0.0
mp-1102285,Al2P2S8,12,1,112,303.32308333107903,2.038867454788788,25.27692361092325,1.49607681,-8.672575278333333,-0.693546783204364,0.0,2.8338,0.0
mp-1228817,Al1Re1Ge1,3,1,107,42.66967420276164,11.123343769607862,14.22322473425388,8.83008664,-24.62700390666667,-0.288773700833331,0.0,0.1187,0.0
mp-555805,Al2S2Cl14,18,4,7,524.0641541194176,1.9468865434888991,29.11467522885653,-1.08248774,-3.602239992222224,-1.288491659166669,1.0,2.4961,0.0
mp-2624,Al1Sb1,2,0,216,59.15180866014202,4.175546636123753,29.57590433007101,4.4349805,-16.472182515,-0.252975485,0.0,1.2255,0.0
mp-1194909,Al4Sb8Se8Cl16,36,5,2,1147.4532497964842,3.300858028329444,31.87370138323568,1.66711261,-4.2335156925,-1.3013409741319442,0.0,1.121999999999999,0.0
mp-567743,Al8Sb16Te16Cl32,72,5,2,2450.00959887164,3.619356622407354,34.02791109543944,2.2264793,-4.083883054999999,-1.230065133148147,0.0,1.0432,0.0
mp-676861,Al1Sb1O4,6,3,65,61.01378780609018,5.789865919533531,10.168964634348365,6.3855935,-7.154437081666667,-2.5433669,1.0,1.6178,1.0
mp-1205403,Al2Se2Cl14,18,5,1,512.449975324386,2.294927242199511,28.469443073577,1.54014386,-8.086753680555555,-0.9633391423958332,0.0,2.5979,0.0
mp-31220,Al2Si2Te6,10,6,162,304.8783183710749,4.76974110495312,30.487831837107496,4.11685656,-18.683889487,-0.332382315999998,0.0,1.2504,0.0
mp-29407,Al2Te2I14,18,4,7,874.5762406291072,3.960312239223144,48.58756892383929,0.27101582,-2.631290692777778,-0.680516245185186,0.0,1.8846,0.0
mp-985477,Al8Tl8S16,32,4,15,800.5090002984143,4.903687261890076,25.015906259325448,3.18805034,-4.736265790625,-1.137824020208334,1.0,2.1201,0.0
mp-863762,Al8Tl8Se16,32,4,15,908.242970799383,5.693830424794208,28.38259283748072,2.67023972,-23.034003498125,-0.9003726551562501,0.0,1.788999999999999,0.0
mp-1281387,Al2V4O8,14,3,74,147.64208940673518,4.33826311860247,10.545863529052513,6.03221329,-8.722876605,-2.764986320714285,0.0,0.2716,1.0
mp-2767452,Al4V8O16,28,5,1,281.0322381572287,4.558268726937316,10.036865648472451,7.57770067,-11.235359751428572,-2.83716957,1.0,0.161999999999999,1.0
mp-20014,Al4V4Mo4O28,40,3,62,586.8476167195777,3.235455034692779,14.67119041798944,-0.12029641,-8.291184986000001,-2.4600990815,1.0,2.3841,1.0
mp-1182867,Al1W1O4,6,3,65,59.46654024812104,7.674028352592433,9.911090041353503,4.32611183,-8.765301039999999,-2.682709359999999,0.0,2.980299999999999,1.0
mp-28159,As2Br6F12,20,5,2,396.53621659087327,3.5898205459455133,19.826810829543664,-1.79995567,-3.774909281,-1.6685016422500012,0.0,1.6272,0.0
mp-27445,As2I6F12,20,5,2,468.8516723779201,4.034902013756525,23.44258361889601,-0.09973775,-3.799419598999988,-1.726892136249988,0.0,1.3305,0.0
mp-558244,As2I4F12,18,4,12,354.6023323935869,4.146365554856233,19.70012957742149,0.04219014,-4.046235232222222,-1.912761675277777,0.0,0.5218,0.0
mp-27578,As16S64F96,176,4,14,3356.64534992318,2.510489962729289,19.071848579108973,-0.44870647,-4.727692241534091,-1.754358145852272,0.0,1.2407,0.0
mp-30934,As1S24I3,28,6,160,835.5820863702693,2.434810668507847,29.84221737036676,-0.07984157,-4.371489545000001,-0.494247045089285,0.0,2.0753,0.0
mp-15649,As8Ir4,12,4,14,212.13472096243024,10.710256626582211,17.677893413535852,6.44121523,-27.829211324166668,-0.571072849166668,0.0,0.8155000000000001,0.0
mp-1788,As8O20,28,3,19,343.77220326522104,4.440831778137766,12.277578688043608,1.34530062,-6.426088671428571,-1.557510087142856,1.0,1.426,1.0
mp-2455,As4Os2,6,3,58,102.41355313495792,11.02793169102378,17.068925522492986,6.41089284,-27.770656393333336,-0.303892785000002,0.0,0.6646999999999991,1.0
mp-540883,As8P8S28,44,4,14,1180.2759659590304,2.455029461692339,26.824453771796144,0.77713452,-9.66002934,-0.23601041505817,0.0,2.6841,0.0
mp-557799,As4Pb2Xe6F36,48,4,12,889.8750592652611,4.078757490910603,18.53906373469294,-0.98693928,-3.876743017916666,-1.8929614597916664,1.0,2.5938,0.0
mp-680722,As4Pb28Cl8O34,74,4,15,1504.3350346165244,7.648357758354693,20.328851819142223,3.64664429,-5.750494837162162,-1.620040449864864,0.0,2.0997,1.0
mp-505465,As8Pb8O20,36,4,14,634.6659192267454,6.742356808303725,17.629608867409594,2.77184515,-6.251372719166668,-1.639667804722222,0.0,2.936,1.0
mp-31107,As4Pb16O26,46,4,12,831.1107926930558,8.053581417380528,18.06762592810991,3.71430627,-6.128784897608697,-1.634658171956522,0.0,2.0725,1.0
mp-28537,As8Pb4O16,28,4,14,480.8742475198438,5.815696728518744,17.17408026856585,2.08657574,-6.338226861071429,-1.646121696071428,1.0,2.846199999999999,1.0
mp-20015,As2Pb1O6,9,6,162,114.43463048256832,6.573971107735893,12.71495894250759,3.54799653,-6.482162159999998,-1.7332001416666651,0.0,2.1358,1.0
mp-2513,As8Pt4,12,0,205,216.90309132645183,10.562598941863977,18.07525761053765,6.16536856,-27.57497112833333,-0.607378169999999,0.0,0.0785,0.0
mp-15954,As8Rh4,12,4,14,209.600517428747,8.009504852964664,17.466709785728916,5.97706546,-18.423023033333333,-0.5725928316666651,0.0,0.2625,0.0
mp-766,As4Ru2,6,3,58,101.2371077110571,8.23119467448224,16.872851285176186,6.26836811,-18.736602063333333,-0.456736306666667,0.0,0.4492,0.0
mp-1189572,As8S12,20,5,2,526.4141283759965,3.104445879796971,26.320706418799823,1.60174576,-10.8599447265,-0.155932882187498,0.0,1.9873,0.0
mp-909,As8Se12,20,4,14,561.681862836406,4.573186524611719,28.0840931418203,1.60280202,-14.6094313875,-0.139482853937499,0.0,1.4466,0.0
mp-540912,As12Ir4,16,0,204,309.087375814539,8.96076155988533,19.31796098840869,6.36148499,-24.628755081875,-0.508268478749997,1.0,0.026799999999999,0.0
mp-1214749,As6Pb10Br2O24,42,2,176,725.1646970113687,7.019217767126803,17.2658261193183,5.87750195,-6.183022950238095,-1.7265428767857132,0.0,2.9898,1.0
mp-510724,As6Pb10Cl2O18,36,2,176,690.928260189015,6.922654904135786,19.192451671917084,3.22355124,-6.015325571666667,-1.62900363875,0.0,2.6399,1.0
mp-1095378,As2Au2O8,12,4,15,183.8423218097537,6.067715375316714,15.320193484146143,-0.23619548,-5.787612073333332,-1.164970647916666,0.0,1.8671,1.0
mp-23444,As4Cl8F12,24,1,85,464.89640505439934,2.897808589412205,19.370683543933307,-2.523679409999999,-7.645151020833333,-1.580068915416666,0.0,2.8871,0.0
mp-29863,As4Cl12O4,20,4,14,502.696636325978,2.606670690721858,25.134831816298902,-1.75682186,-4.188813654999999,-1.156071267499999,0.0,2.5284,1.0
mp-1201143,As4Cl4O4F32,44,3,33,670.6138418217076,2.757054274214318,15.241223677766085,-0.19549662,-4.206193713181818,-1.771880500681818,1.0,2.8596,1.0
mp-23218,As2I6,8,6,148,340.20575807555747,4.447894935673874,42.52571975944469,0.94172182,-2.789183233749998,-0.478643139374998,0.0,2.2375,0.0
mp-31020,As2I10F12,24,4,15,640.8326006426267,4.267401307194904,26.70135836010945,0.27726077,-3.427569553333332,-1.446461231874999,0.0,1.4099,0.0
mp-555340,As4I4F48,56,0,205,793.3146274163055,3.598628528089576,14.166332632434026,-2.49444082,-4.103919015000001,-2.021035897321429,1.0,0.649,0.0
mp-1228823,As4Ir4S4,12,0,198,196.7516370828484,10.100841325313093,16.395969756904034,6.74522384,-25.73264631083333,-0.6986851376041681,0.0,1.863,0.0
mp-1228810,As4Ir4Se4,12,0,198,213.5273414348389,10.766026352104385,17.793945119569912,6.0415752,-27.7489379375,-0.622789714687499,0.0,1.4699,0.0
mp-30010,As4Kr4F28,36,4,14,547.8998229043624,3.536363482533973,15.219439525121178,-3.75583694,-6.949183169444444,-1.485383560462962,0.0,2.4978,0.0
mp-1182477,As1N1O2F6,10,4,12,146.79283027722812,2.657416696194527,14.679283027722812,-2.88429066,-5.328754723,-1.890011069249999,0.0,2.7442,1.0
mp-1214793,As4Os4S4,12,4,14,197.0946426435678,10.016300167723148,16.42455355363065,6.7369569,-25.685653831666663,-0.443067525104164,0.0,1.1795,1.0
mp-1214784,As4Os4Se4,12,4,14,214.2779096036626,10.666722596410198,17.856492466971883,7.07857249,-27.648357001666668,-0.313583645520831,0.0,1.0029,1.0
mp-14367,As4P4O20,28,3,19,314.9095340543126,3.920891505689514,11.246769073368307,1.85220251,-7.039472042857142,-2.064414745306121,0.0,2.0204,1.0
mp-1228745,As4Rh4S4,12,0,198,195.75359544951388,7.121892826956591,16.312799620792823,6.0443809,-16.357163500000002,-0.7309106001041691,0.0,1.2237,0.0
mp-1228724,As4Rh4Se4,12,0,198,212.8447969496416,8.013444866116352,17.737066412470135,5.4802612,-18.3845495575,-0.6661096080208321,0.0,0.9137,0.0
mp-1214786,As4Ru4S4,12,4,14,194.96319849644567,7.088232343916291,16.246933208037138,6.56684543,-16.648227780833334,-0.592539325937499,0.0,0.9146,0.0
mp-542810,As16S16,32,4,14,871.8557048070456,3.260272137661132,27.245490775220176,1.17086796,-11.53036466625,-0.159099631406249,0.0,1.9674,0.0
mp-558466,As4S4Br12F24,44,4,14,977.2996534729926,3.131044245096021,22.211355760749832,-1.07910967,-4.037891268863636,-1.746760727499999,0.0,2.5087,0.0
mp-557628,As4S4I8F24,40,4,15,819.2963309860281,3.849159839765954,20.4824082746507,0.0208845,-4.124717910250007,-1.790755752250007,0.0,1.1714,0.0
mp-542570,As16Se16,32,4,14,937.1541375116144,4.362593485155438,29.286066797237947,1.44170004,-14.629037953125,-0.119492343906248,0.0,1.367999999999999,0.0
mp-1214921,As4Se4Br12F24,44,4,14,995.023084297199,3.388315735644553,22.614161006754525,0.52503666,-4.030243432272727,-1.7975172627130682,0.0,2.5724,0.0
mp-559575,As4Se4I12F24,44,4,14,1151.516849222855,3.741157392324684,26.17083748233761,-0.2595248,-3.905646891136363,-1.7037208815767042,0.0,1.4197,0.0
mp-23575,As4Se12Cl12F24,52,4,14,1231.890949873302,2.8692720140641983,23.69021057448657,1.00055977,-4.082745940769231,-1.60685366265625,0.0,1.9559,0.0
mp-23569,As2Se12I2F12,28,4,13,691.0316349667293,3.794681864162699,24.67970124881176,0.14556579,-4.073514975357143,-1.31260652796875,1.0,1.577,0.0
mp-505373,As4Se4I4,12,4,14,397.0435141879109,4.697280997481949,33.086959515659245,2.29160661,-3.681262548333331,-0.451247006614581,0.0,1.2345,0.0