material_id,composition,nsites,crystal_system,space_group,volume,density,density_atomic,efermi,energy_per_atom,formation_energy_per_atom,is_gap_direct,band_gap,is_oxide
mp-1079679,K4Cd2Sn2,8,3,40,313.3094438888554,3.278764613103462,39.16368048610693,1.60666747,-2.0085791425,-0.200498769874998,0.0,0.059499999999999,0.0
mp-2043826,K4Cd2Sn2,8,3,63,303.43952593813856,3.385412346654306,37.92994074226732,1.73720052,-14.51304024875,-0.291115413125,0.0,0.0482,0.0
mp-1194826,K8Cd4Sn4S16,32,4,15,951.7439816019258,3.053824194384999,29.741999425060182,1.20594157,-4.06308504875,-1.089865078687498,1.0,1.4957,0.0
mp-1079645,K2Cd1Sn1Se4,8,1,121,242.7105356810374,4.277105708118633,30.33881696012968,1.3471954,-3.7049404225,-1.052944497359374,0.0,1.6721,0.0
mp-1206020,K2Ce1Cu2S4,9,4,12,205.19351855678445,3.833155054299625,22.79927983964272,3.87394972,-5.067874774444444,-1.406592449388887,0.0,0.5588999999999991,0.0
mp-558886,K6Ce3N18O54,81,6,147,1038.7757934467636,2.83108046944978,12.82439251168844,0.47196109,-6.8390429208641965,-1.383759443993826,1.0,1.396799999999999,1.0
mp-1181165,K2V2H8O14,26,5,1,334.6445738712368,2.045052741615885,12.870945148893725,1.81443274,-6.021632931538462,-1.526889194403846,0.0,2.8415,1.0
mp-1080848,K16V16N32,64,3,61,1052.2594266475066,2.980739472762149,16.44155354136729,1.7260073,-7.6451640409375,-0.92220622025,0.0,0.8734000000000001,0.0
mp-16812,K4V4P8O28,44,4,14,614.1379413428945,2.855086851443126,13.957680485065785,1.56992281,-7.803555713636364,-2.741560270139611,0.0,2.0781,1.0
mp-555364,K4V4S8O36,52,3,19,762.0976389588762,2.5986887199689432,14.655723826132236,0.40016192,-6.914713957884615,-2.066741344596153,1.0,1.8958,1.0
mp-531952,K8W24Br56,88,3,48,2934.512924223107,5.205717759509024,33.346737775262575,3.5395456,-5.743899960340909,-1.065319400545453,0.0,2.617099999999999,0.0
mp-758742,K2Y2H16N8,28,4,15,326.6042171873497,1.953314471318325,11.664436328119631,-0.44000853,-5.512979613571429,-0.6447722055178571,0.0,2.6774,0.0
mp-1223315,K1Y1Nb6Cl18,26,6,146,662.5439328920205,3.317340135971778,25.482458957385404,2.30868812,-5.8091850361538455,-1.9044903491249991,1.0,1.1149,0.0
mp-571057,K4Y4P8Se24,40,3,19,1130.999280103488,3.897859823693744,28.2749820025872,2.6526367200000003,-5.012375053249999,-1.06768733930982,1.0,1.938699999999999,0.0
mp-11602,K2Y4Cu2S8,16,3,63,368.91599320845177,3.679368190258968,23.057249575528235,3.42943155,-6.24707822375,-1.896803515906249,0.0,1.011499999999999,0.0
mp-1211247,K2Y2Be2F12,18,4,11,249.14015704816865,3.345960131729075,13.841119836009367,5.0255082,-6.414535963333333,-3.874203925805555,1.0,9.999999999976698e-05,0.0
mp-863755,K2Y2Ge2S8,14,4,4,364.88824409833336,2.993564188900987,26.06344600702381,1.92898783,-5.643322264285715,-1.526618357464285,0.0,2.423,0.0
mp-1006888,K1Y1S2,4,6,166,103.6153162731448,3.079141902746625,25.9038290682862,1.75555334,-12.773486895,-2.173021129843748,0.0,2.3221,0.0
mp-863754,K2Y2Si2S8,14,4,4,347.19613912573936,2.719924844717446,24.7997242232671,2.03802674,-11.239949410714289,-1.633431436428572,0.0,2.806199999999999,0.0
mp-16763,K1Y1Te2,4,6,166,142.92997494795227,4.452008487302704,35.73249373698807,2.93610426,-5.084337655000002,-1.602569402645834,0.0,1.2981,0.0
mp-863678,K1Zn4Sb3O12,20,6,146,261.2016218398333,5.45461509363759,13.060081091991666,2.39555922,-5.816968136,-1.9203241388624992,0.0,1.6514000000000002,1.0
mp-1087504,K1Zn4P3,8,6,166,159.46480583524456,4.099214719602042,19.93310072940557,3.11202373,-8.97495194625,-0.391589034709822,0.0,0.5011,0.0
mp-7421,K2Zn2As2,6,2,194,156.9252270728866,3.797333337471321,26.154204512147768,1.55707252,-2.819038701666667,-0.465293413249999,1.0,0.2742,0.0
mp-7437,K2Zn2P2,6,2,194,145.09795638635967,3.100961610188546,24.182992731059944,1.98868598,-8.553498718333334,-0.576517767242063,1.0,0.839599999999999,0.0
mp-7438,K2Zn2Sb2,6,2,194,187.3212178715061,4.011565752277277,31.22020297858436,2.19630567,-14.055861313333333,-0.5108005562499991,1.0,0.443,0.0
mp-1211525,K2Zr12B2I28,44,3,64,1548.8185494394845,5.090305847626523,35.2004215781701,3.61231651,-4.929936548636363,-1.273884644837121,0.0,0.7154,0.0
mp-570066,K4Zr24C4Cl60,92,3,51,2646.6165899038806,2.836558897282025,28.767571629390005,1.93174416,-6.084274127173914,-2.198431475206522,0.0,1.1945,0.0
mp-1212009,K2Zr12Mn2Cl28,44,3,64,1170.1281189523013,3.229103497671395,26.593820885279573,3.629024,-6.0205581725,-2.045140536371866,1.0,1.2413,0.0
mp-9317,K2Zr2Cu2S6,12,3,63,259.6770138447838,3.70969639788617,21.639751153731986,3.54455524,-5.872632219166668,-1.507072931625,1.0,0.592499999999999,0.0
mp-9318,K2Zr2Cu2Se6,12,3,63,299.22803643578885,4.7807978726955085,24.935669702982405,3.16383249,-5.387543194999999,-1.343207952380207,1.0,0.214399999999999,0.0
mp-554835,K4Zr4V4F28,40,3,52,606.3439877648532,3.442460166548689,15.15859969412133,1.24758394,-6.78559594025,-3.569601635475,1.0,2.4489,0.0
mp-30009,Kr1F2,3,1,139,54.72221402103786,3.695848893438977,18.24073800701262,-3.29453718,-6.288076266666667,-0.009234352222222,0.0,2.92,0.0
mp-568896,La3Al9Br36,48,6,152,1917.138485406316,3.062805687899041,39.94038511263157,-1.10505113,-4.008081016875,-1.7695752034375,0.0,2.6085000000000003,0.0
mp-28993,La2Au6F24,32,6,167,528.8944924429275,6.014209331879069,16.527952888841483,-1.81488292,-4.502581305625,-2.1448387053125,1.0,2.1698,0.0
mp-1223628,La2Cd6As6,14,3,40,371.1149785525516,6.272327063068824,26.50821275375369,3.77684229,-3.631759127142857,-0.5137012310714281,1.0,0.208299999999999,0.0
mp-973441,La2Er6S12,20,4,11,469.0633073454251,5.898348304295043,23.453165367271254,4.16375228,-6.767322989000002,-2.420390894999999,1.0,1.060299999999999,0.0
mp-1188862,La2Ho6S12,20,4,11,473.9097799716983,5.789071453579397,23.69548899858492,4.09952509,-20.0958041335,-2.435923489187496,1.0,1.0735,0.0
mp-1106254,La2Lu6S12,20,4,11,455.1230735496269,6.247750420700158,22.756153677481343,4.12486402,-21.6370939265,-2.417652401687496,1.0,1.0627,0.0
mp-31418,La2Sb6O18,26,3,63,343.7715881455653,6.261880652980352,13.22198415944482,4.949817,-7.0693715188461415,-2.311320759615372,1.0,1.486399999999999,1.0
mp-1223306,La1Tl9Te6,16,1,87,550.3457839588506,8.279239869901009,34.39661149742816,4.94098536,-3.486718218124998,-0.665524998437502,0.0,0.8190000000000001,0.0
mp-1106294,La2Tm6S12,20,4,11,463.7135945299712,6.002388772336429,23.18567972649856,4.17546631,-20.764463313,-2.432671356187498,1.0,1.0688,0.0
mp-1211293,La2Y6S12,20,4,11,482.1339216194276,4.119286934675758,24.10669608097138,4.22114704,-16.328115983500002,-2.438558225687501,1.0,1.0838,0.0
mp-866648,La4Zn12As12,28,3,62,598.1160089343524,6.217732187266921,21.36128603336973,4.85533299,-3.826965708214286,-0.5804506321428581,0.0,0.177399999999999,0.0
mp-1211229,La2Zn6P6,14,2,194,286.5708143537166,4.960728370374229,20.46934388240833,4.88716098,-12.664456215,-0.7383395069897961,0.0,0.2362,0.0
mp-758316,La10Bi8O27,45,5,1,813.8934758700526,7.126321428810995,18.08652168600117,4.90489961,-7.651509982666665,-2.894281256777777,0.0,1.4298,1.0
mp-561194,La40S56O4,100,1,142,2421.4590613806618,5.085495543118654,24.214590613806617,8.00758125,-7.099062112900001,-2.609259472900001,1.0,1.9025999999999992,1.0
mp-558229,La20S38,58,1,86,1373.2782914419165,4.83257928697075,23.67721192141236,6.71863834,-17.72618154086207,-2.205051037015086,1.0,0.442199999999999,0.0
mp-558535,La40Se56O4,100,1,142,2710.92764932226,6.151065714440611,27.109276493222595,7.03208033,-6.5687988521000005,-2.4387671424125,1.0,1.523499999999999,1.0
mp-8866,La20Se38,58,1,86,1550.7739933968655,6.187602764424877,26.737482644773543,5.63906706,-21.721661477758623,-2.088301255765087,1.0,0.772,0.0
mp-1195612,La22Mn6C36,64,6,148,1070.7422248489495,5.920965941258501,16.730347263264836,8.27362131,-8.0211950503125,-0.274379334806035,0.0,0.5335999999999991,0.0
mp-571323,La24C12I34,70,4,15,2589.194378350032,4.997668850385296,36.988491119286174,5.28715197,-5.4323899,-1.41775296657143,0.0,0.025599999999999,0.0
mp-1224120,La12Mn3Al4Se28,47,5,1,1246.1400461196638,5.530713865270069,26.51361800254604,4.98222915,-6.095907998297872,-1.849398299774854,0.0,0.063499999999999,0.0
mp-1223487,La12Si4Sn1S28,45,5,1,1091.5113772147936,4.253214092032797,24.255808382550967,6.63357434,-6.475810718666667,-2.013210782555556,0.0,1.4132,0.0
mp-866690,La17Al4Si9N33,63,0,216,922.0460541051966,5.734714342292482,14.63565165246344,7.63636071,-8.272267428730158,-1.5597999373015892,1.0,1.8766999999999991,0.0
mp-662600,La40Ti22S88O12,162,3,59,3451.331457316513,4.629916579885634,21.30451516862045,6.90995614,-7.298638197037037,-2.393130279958848,0.0,0.285099999999999,1.0
mp-3817,La8Au20F84,112,1,92,1944.235866065022,5.676613183410746,17.35924880415198,-1.49823495,-4.634853040267857,-2.262270037232142,0.0,1.7131,0.0
mp-567756,La4C2N6Cl2,14,3,65,257.8363363271979,4.730964404898376,18.41688116622842,5.41103679,-8.195068625000001,-1.628774948214287,0.0,1.8792,0.0
mp-1223259,La2Co1Ni1O6,10,6,148,117.11177298546602,6.968088919819693,11.711177298546602,6.5738835,-7.820092079,-2.572758715,0.0,0.9971999999999992,1.0
mp-556104,La4Cr2O12,18,4,15,255.6134290078515,5.532285604532543,14.20074605599175,4.00014545,-8.492093074444446,-3.024001106666667,1.0,2.1672,1.0
mp-18267,La4Cu2Se8O24,38,4,14,623.4618789039978,4.523493050464531,16.406891550105204,3.17862522,-6.640949849210526,-2.044613067598685,1.0,0.6129,1.0
mp-1195675,La8Cu4Bi4S20,36,3,62,820.9318868882153,5.749965850173201,22.803663524672647,6.43758182,-20.357170080555555,-1.577878351006944,1.0,1.0575,0.0
mp-31273,La8Cu4S16,28,4,14,619.7423913699287,5.033170466092383,22.13365683464031,6.62183505,-16.526724755714287,-1.8872457930357127,0.0,1.6332,0.0
mp-568036,La8Ga4N12,24,4,15,373.5409156745645,6.926895285928178,15.564204819773522,7.25571578,-17.692561949166667,-1.306130553541666,0.0,1.8032,0.0
mp-637213,La2Ge1I2,5,6,166,194.84610566921785,5.149690488669319,38.96922113384356,4.76531936,-4.957038450000001,-1.448424991000002,0.0,0.3859,0.0
mp-622086,La8Ge4S20,32,4,14,766.4119959928258,4.426670809350311,23.950374874775807,4.82574273,-6.231810738125006,-1.8334557503125064,0.0,1.9676,0.0
mp-1197947,La8Hf4S20,32,3,62,699.7186768128346,5.853389350776672,21.86620865040108,6.29898096,-20.3768479246875,-2.274851523320311,1.0,1.0901,0.0
mp-1197516,La8Hf4Se20,32,3,62,798.1974238498874,7.082389986544339,24.94366949530898,6.3043841,-24.08603389625,-2.061186776914063,1.0,0.802999999999999,0.0
mp-779287,La4Hg2O8,14,4,12,246.99143833018823,7.293159402009271,17.642245595013446,3.70532045,-7.291326411428569,-3.009393516071427,0.0,2.254099999999999,1.0
mp-30282,La4I10,14,4,11,592.5353062242065,5.113501436592766,42.323950444586174,4.84889999,-4.276749706428569,-1.777881522857142,0.0,0.1718,0.0
mp-1224037,La8In4Cu4S20,36,3,62,781.434946943568,5.240217315238577,21.706526303988,7.55720507,-5.867325647777778,-1.70930426324074,1.0,0.8944999999999991,0.0
mp-866666,La16Mg8Ni16H64,104,4,14,1085.1217974159072,5.234365248073081,10.433863436691414,6.98932159,-4.40688722923077,-0.543495760384615,0.0,0.6837999999999991,0.0
mp-1391671,La2Mg1Ni1O6,10,6,148,116.10369197450989,6.5333303723335305,11.610369197450987,7.79694159,-7.510339146999999,-2.8133004534999992,0.0,1.364099999999999,1.0
mp-1411395,La2Mg1V1O6,10,6,148,122.30934305032888,6.096602481299491,12.230934305032887,6.68417595,-8.393823914,-3.366408281500001,0.0,1.7390999999999992,1.0
mp-1196301,La16Mn8Se16O16,56,3,33,1197.5210851114016,5.798045890874985,21.384305091275028,6.89090294,-7.866225337678571,-2.734543270909791,1.0,1.6501,1.0
mp-2903153,La16Mn8Se16O16,56,3,62,1169.0434550830537,5.939284956924921,20.87577598362596,6.02095078,-19.12653423125,-2.735954761622536,0.0,1.2042,1.0
mp-1079069,La2Mn2Se2O3,9,1,139,166.47818962876065,5.920923796391335,18.49757662541785,6.3771668,-8.14793626,-2.58885284172773,0.0,0.619799999999999,1.0
mp-19300,La8Mo4O24,36,1,142,551.2362760159293,5.660250193540541,15.31211877822026,4.08856799,-8.778349266111112,-3.17774589388889,0.0,2.792399999999999,1.0
mp-560340,La4Pd4O10,18,1,84,252.7100317220284,7.499371443133834,14.039446206779354,5.39637036,-7.569045280555558,-2.572202741111114,0.0,1.179,1.0
mp-755026,La4Pt4O14,22,0,227,293.0172795743511,8.840287703254955,13.318967253379595,5.82212255,-7.521595840000001,-2.371595123181819,0.0,0.8203,1.0
mp-27539,La4Re2O10,16,1,87,241.29560643390204,7.487563275890076,15.080975402118876,6.03589164,-9.14426021250001,-3.26176853218751,0.0,0.7077,1.0
mp-7475,La8S12,20,3,62,504.1879526114183,4.927142517339004,25.20939763057092,6.01959917,-19.2266399765,-2.507728445187498,1.0,1.0358,0.0
mp-1202647,La8Sb4S20Br4,36,3,62,896.4705815210842,4.740424580919051,24.901960597807896,5.05222471,-5.774934892222222,-1.7382949119444442,0.0,1.8640999999999992,0.0
mp-32798,La16Se24,40,1,122,1131.0472000690804,6.045119341034584,28.27618000172701,6.10857744,-22.82714325275,-2.342295032187499,0.0,1.58,0.0
mp-7233,La2Se1O2,5,6,164,103.64523915760148,6.22862512961434,20.72904783152029,5.73353796,-8.144214178000002,-3.491444638468752,0.0,2.4067,1.0
mp-1223272,La4Si4Pb2Se16,26,4,9,748.6424329019475,5.202972702332375,28.79393972699798,3.49565341,-5.600498199615384,-1.569529802596153,0.0,1.9379,0.0
mp-866650,La8Si16C4N24,52,3,62,654.4647315708074,4.934478096096375,12.585860222515528,7.68335677,-8.318477115,-1.331429554038461,1.0,2.335599999999999,0.0
mp-558724,La8Si4S20,32,4,14,753.3781172336312,4.110440147368529,23.54306616355097,5.17325871,-15.463044586875,-1.908254534882813,0.0,2.3415,0.0
mp-17834,La8Si4Se4O16,32,3,57,517.9196214101744,5.756411904935,16.18498816906795,6.65372721,-8.2776856671875,-3.454549699980469,0.0,2.2089,1.0
mp-4086,La4Sn4O14,22,0,227,308.7057842260936,6.747748559342507,14.032081101186073,5.65921909,-7.792445157272726,-3.0172737977272712,1.0,2.664499999999999,1.0
mp-560740,La8Sn4S12O8,32,3,62,662.7600667866743,5.258671234163624,20.71125208708357,5.50681362,-7.016771352812501,-2.492698005625001,1.0,1.6742,1.0
mp-14880,La8Ta12S8O32,60,3,58,912.9683281132033,7.368318653630333,15.21613880188672,7.00757799,-9.475412794,-3.253199193133334,0.0,0.796899999999999,1.0
mp-1211581,La8Ta12Se8O32,60,3,58,936.4253327559488,7.849007434265373,15.607088879265811,6.82456411,-9.338082010833334,-3.201528155279167,0.0,0.893799999999999,1.0
mp-32755,La16Te24,40,1,122,1374.420027901538,6.38506570873069,34.360500697538455,7.08416663,-5.71780132175,-1.857414943749999,0.0,1.0395,0.0
mp-4547,La2Te1O2,5,1,139,111.8634549980862,6.4930585363537645,22.37269099961724,6.89197655,-7.969214202000001,-3.386965779333334,0.0,2.028699999999999,1.0
mp-17350,La8Te4O24,36,3,19,542.1769783332608,6.142691479889501,15.060471620368354,4.7747779,-7.7484589591666655,-3.003671611018518,0.0,2.962399999999999,1.0
mp-1195982,La8Th4S20,32,3,62,779.4196602427781,5.711172890213989,24.356864382586817,5.98628024,-24.110126359375,-2.467649113007809,1.0,1.4485,0.0
mp-1198974,La8Th4Se20,32,3,62,880.3280493276335,6.825660080729948,27.510251541488547,5.33837822,-27.837582635,-2.272254670664061,1.0,1.118199999999999,0.0
mp-12192,La16Ti16O56,88,3,33,1113.5513532753469,5.792346189149735,12.653992650856214,4.97215789,-9.2657117675,-3.784009469469697,0.0,2.928499999999999,1.0
mp-760513,La2U1O6,9,3,71,126.66568600345036,8.020941010490947,14.073965111494484,6.25113322,-9.542384695555556,-3.892252445555556,0.0,1.739799999999999,1.0
mp-1196943,La16Zn8Se16O16,56,3,64,1198.6164064689565,5.90879751626913,21.403864401231367,4.49286028,-6.776733221964285,-2.773947109776785,1.0,2.4958,1.0
mp-1198687,La8Zr4S20,32,3,62,708.3562214576181,4.963733410030479,22.136131920550564,6.41587549,-7.180818636250002,-2.291879551562502,1.0,1.0739,0.0
mp-1200409,La8Zr4Se20,32,3,62,804.5109662754703,6.306329243346896,25.140967696108447,6.25728224,-21.3112533484375,-2.086609164726564,1.0,0.831199999999999,0.0
mp-617632,La6Ag2Ge2S14,24,2,173,565.5938356427667,4.824773562402956,23.566409818448616,5.07572514,-6.078800629583333,-1.808591977847221,0.0,1.9759,0.0
mp-542888,La6Ag2Sn2S14,24,2,173,577.1323219020185,4.99342030501125,24.04718007925077,5.43572707,-6.012083989166666,-1.792996670763888,0.0,1.952299999999999,0.0
mp-17155,La6Ag2Sn2Se14,24,2,173,654.1947032613405,6.071675524819941,27.258112635889187,4.76824989,-5.519251862916666,-1.6749259302560762,0.0,1.300499999999999,0.0
mp-29990,La24B16N40,80,4,14,1094.656771307993,6.169396209249174,13.683209641349912,7.73954792,-16.582901356625,-1.62582112,0.0,1.311299999999999,0.0
mp-2901816,La6Be2Ga2S14,24,2,186,552.1444028439232,4.33014629564862,23.006016785163467,5.05431923,-15.39586756375,-1.957527850598957,0.0,2.8155,0.0
mp-1105333,La6Bi8Au6,20,0,220,561.2164304624004,10.909396923061644,28.06082152312002,6.81007638,-4.840770186500004,-0.8217897310000051,0.0,0.379299999999999,0.0
mp-569686,La24C16I24,64,3,20,1939.414888191947,5.626653071176087,30.303357627999173,6.80543312,-5.925598955000002,-1.195925186875003,1.0,0.032899999999999,0.0
mp-568591,La6C2I10,18,5,2,703.8913102336238,5.016590601993243,39.10507279075688,5.3588169,-5.069998776666662,-1.552582123055551,0.0,0.192,0.0
mp-1105594,La6Cu6Sb8,20,0,220,483.8090774955343,7.512404196634495,24.190453874776715,8.33427923,-5.277253193,-0.9150885645,0.0,0.2826,0.0
mp-582767,La6Cu2Ge2S14,24,2,173,550.7093232937094,4.687889939090625,22.94622180390456,5.40482929,-6.224744392083333,-1.849846657708332,0.0,1.7961,0.0
mp-510011,La6Cu2Ge2Se14,24,2,173,625.8645628899561,5.866857826990432,26.07769012041484,4.88918236,-5.688485245,-1.688348896367188,0.0,1.1936,0.0
mp-555681,La12Cu4S12O8,36,3,62,697.9508796848467,5.790466558200168,19.387524435690185,7.34975515,-7.321053146388888,-2.741249957777777,1.0,0.967,1.0
mp-504650,La6Cu2Si2S14,24,2,173,544.4353668320568,4.470127895084109,22.684806951335705,5.85216964,-6.38171537375,-1.939960124791666,0.0,1.5012999999999992,0.0
mp-568082,La6Cu2Si2Se14,24,2,173,620.0288409914599,5.683428254895907,25.83453504131083,5.02311509,-5.803865051666666,-1.736871188450521,0.0,1.5373,0.0
mp-510566,La6Cu2Sn2S14,24,2,173,566.9715489844135,4.823287465706129,23.62381454101723,5.83035675,-6.15910724625,-1.835330845208332,0.0,1.869399999999999,0.0
mp-567753,La6Cu2Sn2Se14,24,2,173,639.0158618083319,5.985548571829735,26.62566090868049,5.00761194,-20.400134269166667,-1.649447434869789,0.0,1.2088,0.0
mp-780561,La12Ga20O48,80,0,230,1043.3911689409726,6.094259937892628,13.042389611762156,3.88162645,-7.389292266375,-2.9230905920000003,1.0,2.8686,1.0
mp-561076,La12Ga4S20O4,40,3,62,882.1899176050932,4.990060196658525,22.05474794012733,5.8809335,-6.741851051499999,-2.394263433499999,1.0,1.196499999999999,1.0
mp-540877,La12In4S24,40,3,18,972.0304331585062,4.946778302667944,24.30076082896265,6.47307232,-18.08328674525,-2.080994196437498,1.0,1.359499999999999,0.0
mp-645695,La12Lu4Se24,40,3,58,1093.9067230200994,6.469328209893499,27.347668075502487,5.415661959999999,-23.6356617525,-2.317303534104167,1.0,0.484499999999999,0.0
mp-1190945,La6Mg2Al2S14,24,2,173,554.9005171057319,4.144358998349606,23.120854879405496,5.21468258,-6.247780240833333,-2.151731563125,0.0,2.295199999999999,0.0
mp-29150,La12Mo4O28,44,3,19,671.1010981725259,6.182433022789479,15.252297685739224,6.60898537,-8.856539365909091,-3.375684960454546,0.0,0.0236,1.0
mp-560349,La12Nb4O28,44,3,62,668.8564115883513,6.173055593612762,15.20128208155344,5.50903719,-9.13682392159091,-3.723637249772728,1.0,2.9341,1.0
mp-1227132,La6Pb6I26O80,118,6,161,2060.7110719400653,5.363544632072687,17.46365315203445,3.15043011,-5.496804857627119,-1.366693557288136,1.0,2.9264,1.0
mp-1211495,La12Pt4I12,28,0,214,1037.264853186443,6.355591697481963,37.04517332808724,6.31329293,-5.127015113571429,-1.491130473571429,1.0,0.1793,0.0
mp-504831,La6Re2O16,24,4,11,344.29346455707804,7.050490534122556,14.345561023211586,5.04040038,-8.869900379166667,-3.299915082291667,0.0,1.8714,1.0
mp-29824,La6Ru2I6,14,4,11,526.3144965902167,5.669591326513356,37.5938926135869,6.14991619,-5.386487685,-1.292993156428572,0.0,0.1048,0.0
mp-555129,La12S12N4,28,3,62,676.803681423427,5.171178175117708,24.17156005083668,6.1266809,-19.84687982464286,-2.351438605669642,0.0,1.3375,0.0