material_id,composition,nsites,crystal_system,space_group,volume,density,density_atomic,efermi,energy_per_atom,formation_energy_per_atom,is_gap_direct,band_gap,is_oxide
mp-1229248,Ca65Ga24Sn19,108,6,164,3218.401609374132,3.371181552396891,29.80001490161233,3.58204136,-3.147800361388888,-0.562428491157406,1.0,0.1482,0.0
mp-1227494,Ca12Fe2Co6O24,44,6,155,508.64712489444514,4.342631349494903,11.560161929419207,4.02487939,-7.058241748863636,-2.454632534772726,1.0,0.2065,1.0
mp-17875,Ca12Ga2N10,24,2,193,418.420311634898,3.017911027605057,17.434179651454084,2.50749431,-9.260814243333334,-0.9844566178125,0.0,0.8130000000000001,0.0
mp-17577,Ca12Mn2N10,24,2,193,410.07415398514337,2.959594673577079,17.086423082714308,3.754327179999999,-6.2414400075,-1.00085639941092,0.0,0.732399999999999,0.0
mp-989590,Ca6Sn2N1F1,10,0,225,238.46296574733603,3.557608847400585,23.846296574733604,4.76640113,-4.345057944000001,-1.314570633,1.0,0.132299999999999,0.0
mp-1246515,Ca12Te6N4,22,6,167,551.5352556049138,3.921701095476827,25.0697843456779,5.84585913,-13.98211225,-1.551299843409091,1.0,1.843299999999999,0.0
mp-567722,Ca14Nb2Si4N18,38,4,11,545.1625590380804,3.385171795143762,14.346383132581064,4.07016166,-7.138145814473684,-1.346796342631578,1.0,1.9855,0.0
mp-1029474,Ca28Si4N24,56,3,60,868.1597623930159,3.004270533805523,15.502852899875284,3.68660485,-6.088022391071428,-1.124152129642856,1.0,1.822099999999999,0.0
mp-569892,Ca18B4C8Cl16,46,3,63,946.6037580777196,2.504975511613475,20.578342566906947,3.64285457,-5.190538051304348,-1.576964710797102,0.0,1.495499999999999,0.0
mp-560257,Ca18Cr2P14O56,90,6,161,1178.3621898957554,3.036802997870041,13.092913221063949,1.95236407,-7.784119683333333,-3.247349256499999,0.0,2.8908,1.0
mp-5615,Ca3Ag3As3,9,2,189,192.72519211590503,5.760752154777389,21.413910235100563,4.38115227,-15.265532563333332,-0.8982986191666661,0.0,0.020699999999999,0.0
mp-1213950,Ca2Ag2As2O8,14,3,63,202.6572849028098,4.701051864819798,14.4755203502007,2.05873852,-6.233755397142857,-2.046540524166666,0.0,1.3007,1.0
mp-12277,Ca3Ag3P3,9,2,189,179.61759693289594,4.962268593426014,19.95751077032177,4.92405381,-13.324230092222225,-0.8588143732142851,0.0,0.007,0.0
mp-966582,Ca8Al8H40,56,4,14,556.1979751516271,1.7220285972422151,9.9321066991362,1.3971609,-4.809843925,-0.374707634107142,0.0,2.6885,0.0
mp-557180,Ca2As4Xe8F40,54,4,4,1099.143741159363,3.308742871563566,20.354513725173387,-4.29095598,-3.77808022574074,-1.934836184074074,0.0,2.6249,0.0
mp-28763,Ca16As16Pd16,48,3,62,1036.533155141825,5.675471455392279,21.59444073212136,3.97541946,-15.953612326458334,-1.051519560624998,0.0,0.160599999999999,0.0
mp-1042415,Ca8Bi16O40,64,3,61,1009.5101056935114,7.080103191364232,15.773595401461115,3.3723698,-6.293025785468752,-1.9773415948437512,0.0,0.0504,1.0
mp-1227238,Ca1Bi1I1O2,5,1,107,110.65538382421856,6.122036427857116,22.131076764843712,3.51993946,-5.632031042,-2.168917279,0.0,1.553,1.0
mp-755893,Ca4Bi4O12,20,4,14,289.0372280681903,6.826443674238326,14.451861403409517,4.01088681,-6.412126172499998,-2.264222731499998,0.0,0.665299999999999,1.0
mp-760403,Ca1Cd3O4,8,3,65,106.37982105652556,6.888620073323583,13.297477632065696,1.97161341,-4.9336731375,-1.848988828749998,1.0,0.1892,1.0
mp-753287,Ca1Cd1O2,4,1,123,53.88608967997407,5.685125809470963,13.471522419993518,2.36222834,-5.5597009675,-2.344317947499998,0.0,0.375499999999999,1.0
mp-1229253,Ca2Ce8Si6O26,42,2,173,579.4290982087994,5.117153557631417,13.795930909733318,7.4348282,-8.679423971428573,-3.615002708809524,1.0,0.1608,1.0
mp-1227227,Ca1Ce1N2,4,1,123,61.580980308222266,5.614339361353919,15.395245077055566,5.64930415,-15.4951035275,-1.460997576875,0.0,0.389199999999999,0.0
mp-1227255,Ca1Ce1V2O8,12,1,119,171.19098836660086,3.977667952756905,14.26591569721674,0.96393949,-8.50315408,-3.028649919166666,0.0,1.5741,1.0
mp-1398496,Ca1Co1F6,8,6,148,112.71773403420669,3.137904648798422,14.089716754275836,-3.42122155,-5.312642777500001,-2.73487642125,0.0,1.3308,0.0
mp-1213999,Ca4Co4Ge4O16,28,3,62,372.9760985572464,4.196558777984593,13.320574948473086,2.38755704,-7.137319121071429,-2.343906481785715,1.0,2.0128,1.0
mp-1932798,Ca1Cr2F12,15,5,2,204.8857495769497,3.015364832878556,13.65904997179665,-2.43334944,-5.67117471999999,-2.719313165333323,0.0,1.4544,0.0
mp-1040889,Ca4Cr8P8O36,56,3,62,687.4241369350874,3.38195362405984,12.27543101669799,2.63804037,-8.292206471964287,-2.815471406556121,1.0,2.1309,1.0
mp-557519,Ca1Cr1F6,8,6,148,113.02192670799636,3.027538056892251,14.127740838499545,-2.75614002,-6.18352747,-3.29080727,0.0,1.5339,0.0
mp-19215,Ca2Cr2O8,12,1,141,164.55716430369858,3.14982524324953,13.713097025308215,-0.07153711,-7.67376587,-2.432017308333333,1.0,2.3714,1.0
mp-19134,Ca4Cr4P8O28,44,5,2,556.6491892135087,3.174224150563634,12.651117936670651,4.97525801,-8.064720760227273,-2.871509720616883,0.0,0.1076,1.0
mp-1404968,Ca1Cu2F8,11,1,97,143.96794240417654,3.681187857840044,13.087994764016049,-2.12903256,-7.147404967272727,-2.261940485454545,0.0,1.2139,0.0
mp-12266,Ca2Cu2F8,12,1,140,149.72623306878353,3.984098938317803,12.477186089065292,0.80430605,-8.10809267,-3.043225753333333,1.0,0.7392000000000001,0.0
mp-14694,Ca4Cu4P8O28,44,4,14,515.8164444753778,3.574227925845981,11.723101010804042,2.76253285,-7.320276659318182,-2.631960237889609,0.0,0.6887999999999991,1.0
mp-1043513,Ca4Fe4Ge8O24,40,4,15,506.7211049854847,4.420047015409942,12.668027624637118,2.80648068,-7.283357312,-2.342413028999999,0.0,1.6032000000000002,1.0
mp-1040941,Ca4Fe8P8O36,56,3,62,666.5572125640037,3.564535041998629,11.902807367214352,1.74261682,-7.888326355535715,-2.580595041556122,0.0,2.0735,1.0
mp-549711,Ca2Fe2Cl2O4,10,4,12,169.168876731912,3.207330368787457,16.9168876731912,1.99023481,-6.818034057,-2.374016877,0.0,0.6341,1.0
mp-542232,Ca4Fe4F20,28,4,14,396.35994930879065,3.199332758230655,14.155712475313951,-2.34368277,-6.194709583571435,-3.33115487428572,1.0,2.833,0.0
mp-17914,Ca2Ga8O14,24,4,15,327.0945224031415,4.375710984157092,13.62893843346423,0.75191403,-6.568917088333333,-2.506107837916667,1.0,2.5387,1.0
mp-1018093,Ca1Ga1Ge1H1,4,6,156,71.6754046645721,4.250051088263053,17.918851166143025,4.1139153,-3.7326023325,-0.4696297834375,0.0,0.4359,0.0
mp-7801,Ca2Ge2N4,8,1,122,105.62708412224428,4.424811865995604,13.203385515280536,4.50594036,-10.61271210375,-0.8207689481250011,1.0,2.662199999999999,0.0
mp-34932,Ca1H1N1,3,1,107,35.338475617530605,2.588778361360527,11.7794918725102,2.829894099999999,-7.433647743333334,-0.8929288191666671,1.0,2.192999999999999,0.0
mp-1029359,Ca1Hf1N2,4,6,166,51.89060749641861,7.890793104034891,12.972651874104653,4.91110491,-19.487347285,-1.875544676875002,0.0,0.543299999999999,0.0
mp-7041,Ca1Hg1O2,4,6,166,69.84267344187123,6.482768359971848,17.460668360467807,0.77144662,-5.1458146275,-2.093016145625001,0.0,2.125,1.0
mp-1041241,Ca2Ho2Mo4O12,20,4,7,254.54684631756905,6.430677454704038,12.727342315878452,4.19949536,-8.571355522,-2.773120962499998,0.0,1.3182,1.0
mp-1041222,Ca2Ho2V4O12,20,4,7,228.17520832414,5.864009533963236,11.408760416207,5.35394201,-8.567154429,-3.121268677499999,0.0,1.1093,1.0
mp-22766,Ca2In4O8,14,0,227,201.09158067639785,5.511331174718168,14.363684334028418,3.5538453800000003,-6.29491207785714,-2.392656165476187,1.0,2.020799999999999,1.0
mp-5795,Ca1Mg2N2,5,6,164,65.62697637431359,2.952859396136397,13.125395274862717,3.84376126,-5.317654780000003,-0.929035700000002,1.0,1.9968999999999992,0.0
mp-1019579,Ca8Mg24Si8N32,72,1,88,891.0092473893886,2.938699474492667,12.375128435963733,4.50121286,-6.229972947361111,-1.154924176805555,0.0,2.4021,0.0
mp-24052,Ca4Mg4Ni4H16,28,0,198,303.65970962804926,2.780323614511511,10.844989629573188,3.04395775,-3.7852761517857134,-0.5000086760714281,0.0,1.872999999999999,0.0
mp-1043484,Ca2Mn2Ge4O12,20,4,15,258.8333774486437,4.314951558639161,12.941668872432183,4.24389341,-7.458031465500001,-2.447887774293105,0.0,1.7943000000000002,1.0
mp-18844,Ca4Mn8O16,28,3,57,305.8061848654581,4.647062841667492,10.921649459480646,3.26728442,-8.179540646071429,-2.447901434051724,0.0,2.0103,1.0
mp-1047886,Ca2Mn6P6O26,40,4,11,498.7746171121461,3.367893894197609,12.469365427803652,2.05717571,-8.10819386725,-2.605115897386084,0.0,0.339899999999999,1.0
mp-558986,Ca4Mn24Si4O48,80,1,142,846.4677896748557,4.62798623318708,10.580847370935697,3.41020353,-8.47421290700003,-2.38528582087934,0.0,0.5927,1.0
mp-557426,Ca2Mn2F10,14,4,15,202.5600091219735,3.11528232672447,14.468572080140964,-1.36884759,-6.372525542857147,-3.410114536133009,0.0,2.5589,0.0
mp-1214074,Ca4Mn4Ge4O16,28,3,62,389.462584815209,3.950776710685106,13.909378029114608,2.77934161,-7.651885446428571,-2.5686730111330043,1.0,1.754799999999999,1.0
mp-1213991,Ca4Mn4Si4O16,28,3,62,370.5830106246252,3.353477420093181,13.23510752230804,5.64375931,-8.252435313928572,-3.054609996490149,1.0,2.5994,1.0
mp-1040876,Ca4Mo8P8O36,56,3,62,758.2105250689214,3.836139115082245,13.539473661945024,6.36232917,-8.29478982875,-2.647682957627552,1.0,2.7872999999999992,1.0
mp-1401355,Ca1Mo1F6,8,6,148,134.81363082816907,3.079427091387,16.851703853521133,-1.61467719,-9.725988745,-3.242683640000001,0.0,2.5031,0.0
mp-989635,Ca2Mo2N6,10,4,12,140.0983293035419,4.220453189740689,14.00983293035419,4.15820118,-8.36548322900001,-0.792266584000009,0.0,0.872599999999999,0.0
mp-607467,Ca4Mo4O12,20,4,14,251.53959017651147,4.859133129267733,12.576979508825572,4.56775482,-8.158404337499999,-2.619377736499999,1.0,1.105,1.0
mp-555424,Ca2Nb4P12O42,60,4,12,882.370781346059,2.814280600947948,14.706179689100985,0.57650124,-8.149206680166666,-2.862265606261902,0.0,2.3764,1.0
mp-29792,Ca4Nb8O16,28,3,57,358.3042428176106,5.373879393079243,12.79658010062895,5.15353506,-9.024095541428569,-3.024087829999995,0.0,1.277299999999999,1.0
mp-557786,Ca2Nb4P4O22,32,4,15,426.05671006477496,3.615531047459706,13.314272189524218,0.72972174,-8.5238450090625,-3.057174504955356,0.0,2.4743,1.0
mp-2713921,Ca2Nb10P18O72,102,6,158,1557.4112707643535,2.8987299706880743,15.268737948670134,0.00130545,-8.37126214637255,-2.893262479936975,1.0,2.4189,1.0
mp-1323553,Ca1Ni1F6,8,6,148,101.483582573437,3.481344506209429,12.685447821679626,-3.28409265,-4.98696335625,-2.578357005,0.0,2.1462,0.0
mp-1195052,Ca2Np2H18O18,40,5,2,408.9836314210481,3.492907593461085,10.224590785526203,1.37087396,-6.40427637025,-1.9022000425,0.0,1.4339,1.0
mp-1227243,Ca2Np2P4O16,24,5,2,285.991617984977,5.42327892389177,11.916317416040709,5.14294143,-8.612562914166666,-3.165228359836309,0.0,0.480099999999999,1.0
mp-1195107,Ca4Np4H28O32,68,4,14,743.0647800694642,3.683963810510415,10.927423236315647,1.6488070700000002,-6.603330329705882,-1.997257819558823,0.0,1.5401,1.0
mp-634859,Ca1O2,3,1,139,36.12744563392267,3.312892458777454,12.042481877974224,2.8285686,-6.173734116666668,-2.206560153333333,0.0,2.7345,1.0
mp-1345,Ca6P6,12,2,189,290.25005887179367,2.438949924979277,24.18750490598281,4.23122084,-9.276643459166666,-1.2564584531547611,0.0,0.3443,0.0
mp-1214043,Ca4P8Pd4O28,44,3,62,571.5441906885608,3.723983871931098,12.98964069746729,3.38019359,-7.369856330909091,-2.583296714935064,0.0,0.3569,1.0
mp-557352,Ca4P8Xe20F88,120,3,33,2283.2797794280227,3.422357890810714,19.02733149523352,-2.94851418,-3.840922128833333,-2.003516461142857,1.0,2.7611,0.0
mp-9122,Ca2P6,8,5,2,162.34278971854437,2.7207923507511182,20.29284871481805,5.94467808,-9.2420413925,-0.7309107334821421,1.0,0.0049,0.0
mp-11007,Ca4P4Se12,20,4,14,507.1679981909675,4.032846886805643,25.35839990954837,2.73053292,-12.846995039,-1.051984898032739,0.0,2.1335,0.0
mp-771691,Ca4Pb4I24,32,3,43,1482.5413777604374,4.51924994581401,46.32941805501367,1.70251876,-2.928686531250001,-1.070896201250001,0.0,1.785299999999999,0.0
mp-7922,Ca1Pd1F6,8,6,148,111.9683330792633,3.863156524552981,13.996041634907913,-2.25078207,-8.58834432125,-2.493979944999999,1.0,2.1062,0.0
mp-1044742,Ca2Pr2Mo4O12,20,4,7,264.6889021152627,5.882859044329145,13.234445105763134,5.863083,-8.549349222,-2.731335463166666,0.0,1.2495,1.0
mp-8255,Ca1Pt1F6,8,6,148,115.96896756412698,4.999451529642187,14.496120945515871,-1.44655694,-12.19997075,-2.5396984625,1.0,2.643,0.0
mp-989606,Ca4Re4N12,20,4,15,312.5301702485125,5.702247561747393,15.626508512425625,1.74597667,-8.628822699999997,-0.7351132354999971,0.0,1.8813,0.0
mp-1672,Ca1S1,2,0,225,46.41405753052727,2.5810342007468723,23.20702876526364,2.6617132100000003,-9.97225439,-2.435607998906249,0.0,2.3819,0.0
mp-504882,Ca2Sb20S12O20,54,4,15,1140.4482069419237,4.688631775426656,21.11941123966525,4.30557613,-5.805716841481482,-1.4499620364814811,0.0,1.7817999999999992,1.0
mp-1415,Ca1Se1,2,0,225,52.40874882176445,3.771646029600366,26.204374410882224,2.43012507,-12.990884785,-2.315957819531251,0.0,2.0728,0.0
mp-2713880,Ca6Sn6S18O72,102,6,161,1620.3241296758963,2.748415940235057,15.885530683097022,0.02945389,-6.7008714734313735,-2.124060738284314,1.0,1.7000000000000002,1.0
mp-1029633,Ca4Sn4N8,16,3,33,265.5959051242573,4.671623566642753,16.59974407026608,4.08031955,-6.285509950625,-0.612578144375,1.0,1.3787,0.0
mp-4438,Ca4Sn4O12,20,3,62,248.80571219239832,5.520396786842774,12.440285609619917,4.10175427,-6.866365996500008,-2.694555046500007,0.0,2.3301,1.0
mp-556697,Ca2Ta4Bi4O18,28,3,36,387.0037755137715,8.27197112219368,13.821563411206125,3.23351002,-8.423518472500001,-2.848434713190477,0.0,2.9261,1.0
mp-989638,Ca2Tc2N6,10,4,12,137.57271785455993,4.34766333811324,13.757271785455991,4.84872139,-12.651171695,-0.57333014225,0.0,0.474,0.0
mp-1519,Ca1Te1,2,0,225,65.28162287945732,4.265149322704297,32.64081143972866,3.67271973,-18.14527302,-1.917514015000001,0.0,1.5535,0.0
mp-15511,Ca2Te6O16,24,4,15,321.1903955775795,5.695976479608087,13.382933149065812,4.61248851,-6.148380454583333,-1.896779987916666,0.0,2.0176,1.0
mp-1366217,Ca20Te20O60,100,1,76,1625.1279576798906,4.407514548542142,16.251279576798908,2.51649572,-6.409629035600001,-2.411071277933333,0.0,2.895,1.0
mp-12221,Ca4Te4O16,24,3,60,332.54728185655193,4.627388712128368,13.856136744022995,2.51427046,-6.426597879999999,-2.269806247777776,1.0,2.2712,1.0
mp-2713742,Ca6Ti6S18O72,102,6,161,1560.7197143806463,2.401135333428538,15.301173670398493,-0.30143748,-7.191704546960785,-2.386310272892157,0.0,2.2441,1.0
mp-16831,Ca1Ti4P6O24,35,6,148,467.67964497699535,2.845351799810924,13.362275570771295,0.74246373,-8.380253920000001,-3.099354685176871,0.0,2.7105,1.0
mp-17784,Ca4Ti4Ge4O20,32,4,14,402.69578864888086,3.968214428674744,12.584243395277529,1.75576972,-7.9571832625,-3.049192665416666,0.0,2.9496,1.0
mp-1029572,Ca16Ti16N32,64,3,61,862.699030046986,3.571182006126836,13.479672344484156,3.62381181,-8.180578562500001,-1.536166715833334,1.0,2.2431,0.0
mp-4019,Ca4Ti4O12,20,3,62,224.09973769300063,4.02925941391082,11.204986884650031,3.09815529,-8.5050821395,-3.556087157166666,1.0,2.3053,1.0
mp-6109,Ca4Ti4Si4O20,32,4,14,381.1090206532908,3.416464100691664,11.909656895415337,2.51225827,-8.484478519375001,-3.476201650416667,0.0,2.985499999999999,1.0
mp-556730,Ca2U2Mo8O32,44,4,13,628.9638270709102,4.84650421922453,14.294632433429776,0.74463425,-8.618194513863621,-2.443331495227258,1.0,2.0852,1.0
mp-9360,Ca4U4P8O32,48,3,62,613.7248638194319,5.065557862707032,12.78593466290483,5.46331831,-8.540988092916667,-3.231684344523808,0.0,0.141299999999999,1.0
mp-554227,Ca2U2Se4O16,24,5,2,385.2421647653273,4.862296154169345,16.05175686522197,1.332730489999999,-7.483567973333333,-2.494191232890623,0.0,1.9467999999999992,1.0
mp-1227453,Ca2U4B4O20,30,5,1,466.2782326807526,4.969754428551855,15.542607756025086,0.90178534,-9.223880468666668,-3.395426235888889,0.0,2.0258,1.0
mp-1227253,Ca1U3Ti8O24,36,5,2,452.8729774044127,5.5773327194584965,12.579804927900351,5.58328516,-9.632238059166667,-3.58238166574074,1.0,0.0593,1.0
mp-2015886,Ca2U2I12,16,4,15,701.0337064819847,4.924688652635496,43.814606655124045,1.95032062,-30.664682523125,-1.373128403124997,1.0,0.9085,0.0
mp-3960,Ca1U1O4,6,6,166,76.36816752081042,7.438674020301041,12.72802792013507,4.23805998,-9.210233925,-3.695424939999997,0.0,2.103899999999999,1.0
mp-1045800,Ca2V2P8O24,36,4,15,496.7799742987173,2.7202608108124213,13.799443730519926,2.95619353,-7.918643086388887,-2.8004801913095223,1.0,2.9611,1.0
mp-27624,Ca1V2O6,9,4,12,126.80711745538088,3.116051896894496,14.089679717264543,-0.63153672,-8.23989794,-2.699767045555556,0.0,2.8812,1.0
mp-21541,Ca4V8P8O36,56,3,62,702.4435668079659,3.289697599022172,12.54363512157082,3.02737596,-8.296707128392857,-2.901277977270408,1.0,1.5018,1.0
mp-16967,Ca2V8Ag4O24,38,1,125,562.5869764179325,3.846383932449266,14.804920432050857,0.70517657,-7.646282397105264,-2.204038629912281,0.0,1.9174,1.0
mp-1213869,Ca4V4Si4O20,32,4,15,374.4531575347632,3.531727721724441,11.70166117296135,3.24160798,-8.2620127834375,-3.1051841578125,0.0,1.1317,1.0
mp-989616,Ca2W2N6,10,4,12,145.95522033096265,6.051179304803491,14.595522033096264,3.95802654,-17.964336496,-0.8058684772500011,0.0,0.5612,0.0
mp-1029267,Ca1Zr1N2,4,6,166,53.33223142460089,4.960404591077643,13.333057856150225,4.71532549,-13.8075860325,-1.796189295625,0.0,0.3938,0.0
mp-1227163,Ca4Zr4Ti8O28,44,5,2,523.9731452844247,4.297743529692703,11.908480574646015,2.43959714,-9.16555210181818,-3.62191468560606,0.0,2.9332000000000003,1.0
mp-1025377,Cd1Ag2I4,7,1,121,267.5417288767736,5.187306308344524,38.22024698239623,0.8864854,-2.4530859571428563,-0.6328093847619031,1.0,1.7741,0.0
mp-7128,Cd1As2O6,9,6,162,99.84185127009457,5.958314167508589,11.093539030010508,2.13534478,-6.139785953333328,-1.696672477222217,0.0,1.934899999999999,1.0
mp-29169,Cd2Au4F16,22,1,124,338.5392843903722,6.458245754222658,15.388149290471462,-2.28454081,-14.834109401818182,-1.535642893636362,1.0,1.7789,0.0
mp-557715,Cd2Au4F24,30,4,15,431.3555864780913,5.653689666329407,14.37851954926971,-3.22787316,-11.853864287333332,-1.2680480613333311,1.0,1.8309,0.0
mp-756301,Cd2Co4O8,14,0,227,146.06798809844764,6.690790002378591,10.433427721317688,2.16246157,-6.321931073571427,-1.319261409285712,1.0,1.9265999999999992,1.0
mp-772099,Cd2Cu4O8,14,1,88,149.99748174795735,6.719774187721026,10.71410583913981,2.87230555,-5.216558242857142,-1.080805735714285,0.0,0.320199999999999,1.0
mp-21333,Cd2Fe4O8,14,0,227,166.66773094950128,5.740751105296045,11.904837924964378,1.988618859999999,-7.001606847142857,-1.6170501857142852,0.0,1.8272,1.0
mp-3443,Cd2Ga4O8,14,0,227,161.0288658479818,6.514222153939238,11.502061846284414,1.5750321,-5.860100102142857,-2.030379208571428,0.0,1.5793,1.0
mp-4452,Cd1Ga2S4,7,1,82,159.94575929459765,3.9463323764415152,22.84939418494252,1.39469697,-11.558159992857142,-0.8252262901785701,0.0,2.1205,0.0
mp-3772,Cd1Ga2Se4,7,1,82,182.5673813806625,5.163480131897585,26.08105448295179,1.1460399,-3.885331745714286,-0.8853534391964281,1.0,1.3487,0.0
mp-13949,Cd1Ga2Te4,7,1,82,230.2900681691512,5.496361772578052,32.8985811670216,2.78075164,-21.13475266714286,-0.469118834285715,1.0,1.0357,0.0
mp-2051619,Cd2H4O4,10,4,8,99.7175920390008,4.876683381972821,9.97175920390008,-0.44641583,-4.846159043999999,-1.3169060284999992,0.0,1.7022,1.0
mp-559200,Cd2In4S8,14,0,227,326.0902033892593,4.789859607424008,23.29215738494709,3.3240971,-14.701688223571429,-0.7870932551785711,0.0,1.050399999999999,0.0
mp-22304,Cd1In2Se4,7,1,82,206.1460991051712,5.299382669137637,29.449442729310167,2.00179498,-3.757469954285714,-0.8343265846726181,1.0,0.956399999999999,0.0
mp-21374,Cd1In2Te4,7,1,82,255.06717155303824,5.549603020597376,36.43816736471975,3.29019904,-24.355150145714283,-0.507855047142856,1.0,0.8481000000000001,0.0
mp-8212,Cd1Pt3O6,10,3,65,118.24397761033272,11.145619979204346,11.824397761033271,4.5886767200000005,-5.962134895999999,-1.076017277999997,0.0,0.2137,1.0
mp-14100,Cd2Rh4O8,14,0,227,171.08578141548205,7.419559621718397,12.220412958248716,3.51442609,-6.276599365714283,-1.207960801428568,0.0,0.8366999999999991,1.0
mp-8922,Cd1Sb2O6,9,6,162,115.68757080803138,6.486808372977494,12.85417453422571,3.01117367,-6.165387162222223,-1.8425228622222232,0.0,1.4136,1.0
mp-29052,Cd4W24Br56,84,0,201,2576.4701925290647,6.017342440620225,30.67226419677458,1.32291425,-5.743286736547619,-0.903951352738094,0.0,2.0519,0.0