material_id,composition,nsites,crystal_system,space_group,volume,density,density_atomic,efermi,energy_per_atom,formation_energy_per_atom,is_gap_direct,band_gap,is_oxide
mp-1213222,Cu2Ag4P8O24,38,4,15,517.1146481467572,3.822376533420224,13.608280214388348,1.79865619,-6.8722210389473695,-2.092089029047619,0.0,0.395699999999999,1.0
mp-1213198,Cu2Ag4P4O14,24,4,15,338.42482145622563,4.447658522514229,14.101034227342735,2.12211991,-6.443637827083333,-1.839324817718253,0.0,0.4723,1.0
mp-2763763,Cu4Ag4F12,20,4,14,246.8258896396244,6.146563448001488,12.341294481981215,2.68853135,-9.880689703,-1.5645383039999992,0.0,0.2559,0.0
mp-557871,Cu2As2Pb2O8,14,5,2,225.27269510929304,6.039480892226779,16.090906793520933,3.34031849,-6.112714168571428,-1.502168412499999,0.0,1.8171,1.0
mp-628643,Cu4As4Pb4S12,24,3,31,560.6012349255601,5.235308548450686,23.358384788565004,4.62552529,-4.703906144166667,-0.5543969816666651,0.0,0.7903000000000001,0.0
mp-12954,Cu2B2S4,8,1,122,112.25620366222348,4.097111183417321,14.032025457777936,6.42471159,-5.355558385,-0.5917289910416661,1.0,1.742499999999999,0.0
mp-983565,Cu2B2Se4,8,1,122,135.12284594939484,5.708953657135069,16.890355743674355,4.97317333,-11.8904752225,-0.186407557656249,1.0,1.487,0.0
mp-556303,Cu2Bi4Se8O24,38,4,14,619.0678341439606,5.307454095740937,16.29125879326212,2.47142885,-5.848941756315789,-1.362707374177632,0.0,0.7250000000000001,1.0
mp-865018,Cu4Bi4Pt4S12,24,3,19,483.62144535687486,7.74341916925691,20.15089355653645,5.6987182,-24.613786560833333,-0.45682257890625,0.0,0.474899999999999,0.0
mp-22982,Cu4Bi4S8,16,3,62,351.083774685468,6.369204668848578,21.942735917841752,5.25309316,-21.701679113125,-0.346912135781249,0.0,0.464,0.0
mp-23116,Cu2Bi2Se2O2,8,1,129,141.45518875529484,8.627813976854387,17.681898594411855,6.26993539,-5.05913956625,-0.950861200585937,0.0,0.3006,1.0
mp-22913,Cu1Br1,2,0,216,45.25114146849795,5.264051278564948,22.62557073424897,3.37355005,-3.385688824999999,-0.517612222499999,1.0,0.487099999999999,0.0
mp-24522,Cu2H4S2O10,18,5,2,185.09721909067943,3.186988906155021,10.28317883837108,1.70409516,-5.867541313333334,-1.44890752,0.0,0.0072,1.0
mp-1194904,Cu4Hg4Se8O24,40,4,14,614.6164574116133,5.598589093228765,15.365411435290332,2.27012307,-5.183325773,-1.07447900371875,0.0,0.7590999999999991,1.0
mp-570081,Cu2I2,4,6,164,110.40773980176633,5.728773114188356,27.60193495044158,4.03031253,-3.155027610833333,-0.343417968333332,1.0,1.6471,0.0
mp-1192231,Cu4I4O16,24,3,62,370.76041099356434,4.55842585268151,15.44835045806518,1.84956325,-5.053469483333333,-0.8176255991666661,0.0,0.9536,1.0
mp-571184,Cu8Mo24Br56,88,0,201,2591.9819360623783,4.6674490857464885,29.454340182527027,1.78081975,-5.334397025340909,-0.9621440485227272,1.0,1.6943,0.0
mp-568397,Cu8Mo24Cl56,88,0,201,2156.398654110011,3.693397261122107,24.50453016034104,2.45048744,-13.001847211477273,-0.990046611249999,0.0,1.9002,0.0
mp-29440,Cu8Mo24I56,88,3,61,3279.520050455627,5.021626943289219,37.26727330063213,3.06621489,-4.898717479204546,-0.5983315423863641,1.0,1.5743,0.0
mp-1191203,Cu4Ni4Sb4S12,24,3,19,455.9470745923718,4.955891794621884,18.99779477468216,6.03765865,-4.956162006666667,-0.552258124583332,1.0,0.0911,0.0
mp-606644,Cu4P40,44,5,2,942.532633788055,2.630580678955053,21.421196222455794,4.7928752800000005,-9.233567167727273,-0.063789065887445,0.0,1.0585,0.0
mp-927,Cu4P8,12,4,14,190.9369318786468,4.365565051390864,15.911410989887235,6.84813622,-9.773293335833332,-0.156310461150794,1.0,0.8679000000000001,0.0
mp-21533,Cu4P8Pb4O28,44,4,14,582.3601283083905,5.071940602437058,13.23545746155433,3.36957578,-7.08671638090909,-2.2432138512987,0.0,0.8003,1.0
mp-505436,Cu4P16O44,64,5,2,833.2873026328564,2.896946093600108,13.02011410363838,1.99513986,-7.34170905640625,-2.329917067254464,0.0,0.6119999999999991,1.0
mp-1197804,Cu4P16S12Br4,36,3,64,886.969741153542,2.722403815907123,24.638048365376168,3.83164506,-4.869429809999999,-0.445749142341267,0.0,1.739999999999999,0.0
mp-554724,Cu4P16S12I4,36,3,64,987.0250966749436,2.762720303091585,27.41736379652621,2.37591492,-4.80039001111111,-0.389257556785712,0.0,1.731399999999999,0.0
mp-1196912,Cu4P16Se12Cl4,36,4,14,936.9135845457996,3.259522675756452,26.02537734849444,3.80784553,-4.645224347222222,-0.412182346733631,0.0,1.6399,0.0
mp-571015,Cu4P16Se16I4,40,3,64,1205.4967229933804,3.472253891312498,30.13741807483451,2.07188299,-4.497677164500001,-0.370801234794643,1.0,1.7151,0.0
mp-1201654,Cu6P6H6O24,42,6,148,488.56606412405074,3.253169004569709,11.632525336286925,0.83103872,-6.549502641190476,-1.877832547746598,1.0,0.722399999999999,1.0
mp-504265,Cu4P4O16,24,4,14,267.387997282292,3.937712612544505,11.141166553428832,1.49203637,-6.771756299166667,-1.887335596607143,0.0,0.3277,1.0
mp-1105187,Cu4P4S12,20,1,136,420.37823665904114,3.013374958658294,21.018911832952057,3.88391309,-9.0914456775,-0.300671765782739,0.0,1.1555,0.0
mp-1213055,Cu1Pb1F6,8,5,2,109.23358504038056,5.848657756579373,13.654198130047568,-0.39103304,-12.6980819625,-1.962069736249999,0.0,0.2011,0.0
mp-28488,Cu2Pt2F12,16,5,2,192.4241320682664,6.431113981846667,12.026508254266648,-0.046832599999999,-11.750046848125,-1.613711773125,0.0,0.0814,0.0
mp-1192782,Cu1Re2H8O12,23,5,2,288.85666638902063,3.656242244839914,12.55898549517481,-0.16283702,-6.600406727391304,-1.5772633076086962,0.0,1.3068,1.0
mp-1181782,Cu8Re8O32,48,1,110,750.3369599335266,5.554785716703551,15.632019998615135,1.22674424,-7.825663406041666,-1.769135923125,0.0,1.495299999999999,1.0
mp-14116,Cu1Rh1O2,4,6,166,46.91270234409874,7.024418962510328,11.728175586024683,4.17134387,-6.3010597525,-0.9612006149999992,0.0,0.6553000000000001,1.0
mp-554497,Cu1Sb2Xe4F20,27,1,82,545.5310885417567,3.68982734131997,20.20485513117617,-3.13678392,-3.627508214444444,-1.746806239259259,0.0,0.6888000000000001,0.0
mp-606617,Cu2Sb4Xe4F32,42,4,14,795.2639831493623,3.648325292157126,18.934856741651483,-2.66803571,-4.052287251904762,-2.002230323809523,1.0,0.0694,0.0
mp-1196390,Cu4Sb12Xe4F92,112,4,14,1863.445899791747,3.554048052829835,16.63790981956917,-2.60085699,-4.245195200982143,-2.083017015803571,0.0,0.5704,0.0
mp-1190199,Cu1Sb6S2O16,25,5,2,386.17265275257193,4.791163882395749,15.446906110102878,3.6781204,-6.4050161496,-1.7523237766,0.0,0.423,1.0
mp-4468,Cu4Sb4S8,16,3,62,334.6434953908593,4.95091915212826,20.915218461928703,5.81889082,-13.459863785,-0.30408631140625,0.0,0.722699999999999,0.0
mp-20331,Cu4Sb4Se8,16,3,62,383.64935720103887,5.942303001166693,23.97808482506493,4.8419184,-16.542633859375,-0.248575811406251,0.0,0.498599999999999,0.0
mp-29567,Cu4Se8Br4,16,4,14,424.0586384784689,4.720447722011455,26.503664904904305,1.60435259,-3.766077258124999,-0.584083218046874,0.0,0.8486,0.0
mp-31038,Cu4Se8Cl4,16,4,14,395.4250027898748,4.31560000952706,24.71406267436717,1.81713281,-11.74204947625,-0.336460636406249,0.0,0.8067000000000001,0.0
mp-28741,Cu4Se12Br4,20,3,53,524.0881839571858,4.8202027256662685,26.20440919785929,1.9001275,-3.780614000999999,-0.5358364734062491,0.0,1.029899999999999,0.0
mp-4701,Cu1Sn1F6,8,5,2,103.38683784071058,4.758137135211362,12.923354730088825,0.26622826,-9.13540924125,-2.341765806249999,0.0,0.099499999999999,0.0
mp-31036,Cu4Te8Br4,16,4,14,486.89380095441527,5.438343208333977,30.430862559650954,3.31252094,-3.553411298124999,-0.547720050208331,0.0,0.7460999999999991,0.0
mp-30971,Cu4Te8Cl4,16,4,14,457.9692056684116,5.137125112962343,28.623075354275727,3.78931002,-17.289873135625,-0.331452256250003,0.0,0.5968999999999991,0.0
mp-31037,Cu4Te8I4,16,4,14,530.6655370966954,5.578052191083276,33.16659606854346,3.89981109,-3.403728055624999,-0.426270287708331,0.0,0.8277999999999991,0.0
mp-1203135,Cu4Te8Pb4O28,44,3,57,624.0054489561969,6.790500197644811,14.181942021731748,5.28222239,-5.845327369772727,-1.414946227803029,0.0,0.1653,1.0
mp-568778,Cu8Te8Br8,24,3,70,687.0319705093498,5.240968494298676,28.62633210455624,3.08294542,-3.571993277499999,-0.6121735780555541,0.0,0.801199999999999,0.0
mp-23370,Cu8W24Br56,88,0,201,2613.646364440705,5.9690618994599856,29.70052686864437,1.95393972,-5.74787373375,-0.799489815113635,1.0,2.0538,0.0
mp-29557,Cu8W24Cl56,88,0,201,2170.840785750502,5.282520106103557,24.668645292619345,2.25512524,-19.693061269545453,-0.78240204931818,1.0,2.4028,0.0
mp-1225724,Dy2Cu6S6,14,6,148,242.7222939096408,6.148054951147953,17.337306707831484,5.38992048,-13.668691549285716,-1.007664624776785,0.0,1.3966,0.0
mp-1213039,Dy2Zn6P6,14,2,194,269.61229079306406,5.563393427353524,19.258020770933147,4.05377093,-12.977568861428573,-0.73187743627551,0.0,0.280299999999999,0.0
mp-1205037,Dy22In12Si8,42,1,139,1057.869899215305,8.12712510649827,25.18737855274536,5.15043281,-25.607525003809524,-0.732932806904765,0.0,0.0196,0.0
mp-1213210,Dy4Au10F42,56,5,2,905.8072508995828,6.265191655441662,16.175129480349693,-1.46762262,-4.581684611785714,-2.231789578511904,1.0,1.5532,0.0
mp-1225760,Dy16C8I24,48,4,14,1691.3713781429058,5.637124710029323,35.23690371131054,3.3016921,-5.187855692500001,-1.348279960138888,0.0,0.552099999999999,0.0
mp-16267,Dy4Cd2S8,14,0,227,354.90423888750905,5.293364752627914,25.35030277767921,1.76238062,-5.762212635714285,-1.940755561904759,1.0,1.0877,0.0
mp-570959,Dy4Cd2Se8,14,0,227,402.4653896459957,6.21570323627435,28.74752783185684,1.53865456,-5.223627139285717,-1.7692832596726191,1.0,0.5809000000000001,0.0
mp-1232352,Dy4Cr2Fe2O12,20,4,14,229.67345952802287,7.64699003914235,11.483672976401143,3.4199627,-8.7483131715,-3.043554594833332,1.0,2.224199999999999,1.0
mp-1225509,Dy4Cr2Sb2O14,22,3,74,273.6742575724841,7.411565844343734,12.43973898056746,4.55174914,-8.29014772090909,-3.048827102575755,0.0,1.894299999999999,1.0
mp-1232083,Dy4Mg2Se8,14,0,227,392.0563200590455,5.634390779810993,28.0040228613604,1.65735622,-5.503637124999999,-1.953513270386902,1.0,1.287399999999999,0.0
mp-755869,Dy4Mn4O14,22,0,227,242.39587966859267,7.492719257538114,11.017994530390576,2.72283343,-8.547644318636364,-2.893416257199581,0.0,0.9041,1.0
mp-1104659,Dy4Mn2Ni2O12,20,4,14,222.14852354332828,7.992584497564907,11.107426177166412,3.77989048,-8.2416893825,-2.855022476626436,0.0,0.5364999999999991,1.0
mp-17822,Dy8Mo4O24,36,4,15,456.5587583056155,7.520548639419288,12.682187730711542,2.6956710900000003,-8.717564141666667,-3.187545564259259,0.0,2.166,1.0
mp-769222,Dy4Pb4O14,22,0,227,302.7367702542192,9.339968751413714,13.760762284282691,4.82354096,-7.212249008636363,-2.5488151693939383,1.0,1.1816,1.0
mp-1178365,Dy4Pt4O14,22,0,227,264.43531897196914,10.388459527397002,12.019787225998597,3.70919263,-7.550688845000002,-2.458439323939394,0.0,1.5345,1.0
mp-1270,Dy8S12,20,3,62,428.8936415691947,6.522929550530526,21.44468207845973,4.20957208,-19.9928767695,-2.379156030187499,1.0,0.593799999999999,0.0
mp-7368,Dy8Se12,20,3,62,488.7204797931984,7.636460752665949,24.436023989659923,3.77396666,-23.5422564655,-2.162599036937499,1.0,0.3663,0.0
mp-769284,Dy2Se1O2,5,6,164,85.94814519555962,8.422830035260105,17.189629039111924,3.62629283,-8.014942905999998,-3.489225997135413,0.0,2.1479,1.0
mp-1194579,Dy12Se6O6F12,36,2,176,584.6150308784379,7.804665956430993,16.239306413289942,2.97936494,-7.321503372777777,-3.736781991223956,1.0,2.8497999999999992,1.0
mp-1225372,Dy2Si9B36C1,48,4,8,488.2379545814814,3.329581836309934,10.171624053780862,6.61601066,-6.617874800208334,-0.206387663350694,0.0,1.172199999999999,0.0
mp-20845,Dy4Sn4O14,22,0,227,280.6959150561688,7.979409196661769,12.758905229825857,4.10661235,-7.744707809999999,-3.027287646212119,1.0,2.7123,1.0
mp-1188427,Dy8Te12,20,3,70,703.1352165530799,6.686222073194957,35.156760827654,3.69029917,-29.724184564,-1.6811286880000011,1.0,0.5488000000000001,0.0
mp-555940,Dy4Te10O26,40,5,2,613.136473192787,6.342725901326319,15.328411829819675,3.31887795,-6.659522304499999,-2.195683625083332,0.0,2.985999999999999,1.0
mp-16037,Dy2Te1O2,5,1,139,95.13070243770012,8.45883840240184,19.026140487540022,4.98653537,-7.7830986,-3.327902807999997,0.0,0.8027999999999991,1.0
mp-1225289,Dy2Te1S2,5,3,71,150.4204884132723,5.704344939545537,30.08409768265446,2.38795907,-23.247873756,-2.157707971125,0.0,1.835799999999999,0.0
mp-1199023,Dy8Zr4S20,32,3,62,649.1665852188473,5.899146136650949,20.28645578808898,4.74189545,-6.987715542812502,-2.178184352291667,1.0,1.1966,0.0
mp-1189135,Dy6Cu6Sb8,20,0,220,433.9200585750712,8.917880380531507,21.69600292875356,6.91506073,-5.0610015465,-0.794126390999998,0.0,0.2964,0.0
mp-558740,Dy6Cu2Ge2S14,24,2,173,491.98697692889584,5.725237986080818,20.499457372037327,4.38431501,-6.016324667083333,-1.720834826874997,0.0,1.8098,0.0
mp-505558,Dy6Cu2Ge2Se14,24,2,173,564.7480926914009,6.918015824978044,23.53117052880837,3.85721437,-5.45297991875,-1.532251464283852,0.0,1.1277,0.0
mp-557998,Dy6Cu2Si2S14,24,2,173,482.8228936522818,5.527437883272189,20.11762056884508,4.67866981,-6.172330595416667,-1.809983240624998,0.0,1.800599999999999,0.0
mp-569557,Dy6Cu2Si2Se14,24,2,173,557.4204977445373,6.743503839362457,23.225854072689057,3.97592453,-5.56696397125,-1.579378002200519,0.0,1.5196,0.0
mp-1205197,Dy24Ga16,40,1,140,992.2843882107704,8.393306096658822,24.80710970526926,3.18312436,-24.41023177025,-0.6440394552499981,1.0,0.005699999999999,0.0
mp-1189242,Dy6Ga2S12,20,3,36,454.7450682674749,5.474547205420483,22.737253413373743,3.09101657,-17.5610407345,-2.001222722687498,0.0,2.061499999999999,0.0
mp-556247,Dy12S12N4,28,3,62,585.0249408989091,6.786083489009647,20.89374788924676,3.46607217,-20.75666949892857,-2.302504128526781,1.0,1.3945,0.0
mp-1212841,Dy6Sb2O14,22,3,20,298.2168691382513,8.032231284385208,13.55531223355688,6.00138329,-8.209743858636363,-3.426120689545452,0.0,2.7960000000000003,1.0
mp-567391,Dy12Se12N4,28,3,62,648.1379584678403,7.567030726028321,23.147784230994297,3.09811198,-23.296925390357146,-2.152805241919643,1.0,1.170999999999999,0.0
mp-1212922,Dy16Cd4Ni4,24,0,216,604.2736048824808,9.025553477367737,25.178066870103365,3.631381799999999,-4.48378745125,-0.28151262069444,0.0,0.036799999999999,0.0
mp-1212919,Dy16Cd4Pt4,24,0,216,632.3183382725643,10.057958198193562,26.346597428023514,3.63343215,-4.841626145833335,-0.590851875277776,0.0,0.025799999999999,0.0
mp-1212902,Dy16Mg4Ni4,24,0,216,622.197931183994,7.8249857027914524,25.924913799333083,3.54836958,-4.5014315112500025,-0.187413376527776,1.0,0.0126,0.0
mp-1201962,Dy16Te12N8,36,4,14,935.4853367821931,7.532013699463911,25.98570379950537,3.64655857,-26.56372319611112,-1.848569065833332,1.0,1.8172,0.0
mp-1095296,Dy4Te3S4,11,4,12,304.6948570207459,6.327594458003352,27.69953245643145,3.64478231,-23.456978740909094,-1.973443999204546,0.0,1.396599999999999,0.0
mp-567407,Dy20C8Br36,64,4,14,1866.3323662618689,5.536484141073776,29.161443222841697,1.58048381,-5.410663163281249,-1.893055198177081,1.0,0.8479999999999991,0.0
mp-570607,Dy20C8I36,64,4,14,2318.2904782813303,5.669082398394276,36.223288723145785,2.8014094,-4.883175353125,-1.429092718020832,1.0,0.6995,0.0
mp-1225400,Dy6Al2Si1S14,23,6,143,483.3983055201221,5.173172974678242,21.01731763130965,4.04753506,-6.261183055217391,-1.975802324565215,0.0,2.466999999999999,0.0
mp-1232410,Dy12Al86Mo8,106,2,193,1865.335146670115,4.484815206809605,17.597501383680328,7.42065313,-4.697392663679246,-0.317154658018866,0.0,0.0383,0.0
mp-1196453,Dy6H40N8O49,103,5,2,1023.5881695228612,3.100717478988679,9.937749218668555,-0.56680425,-6.157639409708738,-1.5685790026699031,0.0,2.9558,1.0
mp-1225409,Dy6Mn1Si2S14,23,6,143,478.77716111322167,5.323894494613837,20.816398309270507,4.99923231,-6.481213898260871,-1.887303530127434,0.0,0.986699999999999,0.0
mp-32633,Dy24Se44,68,5,1,1606.363790159695,7.622939262884551,23.62299691411317,4.13391683,-22.47818999294118,-1.930073411158088,0.0,0.5265000000000001,0.0
mp-1213274,Dy12Ta8Al86,106,2,193,1866.5242489314944,5.086970974359839,17.608719329542403,7.12795409,-13.088060294245285,-0.338279569893081,0.0,0.025,0.0
mp-1201241,Dy14C4I24O2,44,5,2,1597.754862445477,5.612972750031127,36.31261051012448,3.71480361,-5.045466527727273,-1.680826888257574,1.0,0.027099999999999,1.0
mp-1191058,Dy16Ga6Co2,24,2,186,602.2635267316751,8.647028550273864,25.0943136138198,3.62050949,-4.822763782083333,-0.392371364236108,1.0,0.0001,0.0
mp-1192724,Dy16In6Co2,24,2,186,652.7106431628198,8.667059477190438,27.196276798450825,4.5258093,-4.695711125833333,-0.332549277777774,1.0,0.0019,0.0
mp-1226139,Dy18Al10S42,70,6,146,1460.686305970055,5.162924787729597,20.86694722814364,4.06091621,-15.992867361,-1.986247320973214,0.0,2.4394,0.0
mp-2206902,Dy8Ag8S16,32,3,19,724.0530453162919,6.137089898597041,22.62665766613412,4.46225658,-18.897833786875,-1.545914153281248,0.0,1.7401,0.0
mp-1181462,Dy4Ag4Se8,16,3,19,396.0804617302096,7.182270842213075,24.7550288581381,2.81310035,-5.050084810000001,-1.436800769505207,1.0,1.306,0.0
mp-4024,Dy2Ag2Te4,8,1,113,238.30985197107745,7.3243008716950655,29.78873149638468,4.30147812,-4.5572283875,-1.120247139166664,0.0,0.895799999999999,0.0
mp-1102052,Dy4As4S4,12,3,62,251.5006597648652,7.117166653058977,20.95838831373877,5.20541298,-6.191975849166667,-1.7163566397222212,1.0,0.0288,0.0
mp-2029542,Dy4As4S4,12,3,62,248.8452122576166,7.193114517500801,20.73710102146805,5.47644573,-20.0318298275,-1.7903853959375011,0.0,0.4718,0.0
mp-1102952,Dy4As4Se4,12,3,62,267.66144695062616,7.851171885061581,22.305120579218848,4.4284431,-21.994098045833336,-1.6604665646875012,0.0,0.078199999999999,0.0
mp-864993,Dy4B16Mo4,24,3,55,253.46288488737144,7.905821288047908,10.560953536973807,6.87944532,-15.256219772083334,-0.683019862916668,0.0,0.281299999999999,0.0
mp-1192160,Dy4B16W4,24,3,55,253.9948225327156,10.187915568853274,10.583117605529814,6.27687614,-7.976767455833342,-0.5944219822222291,0.0,0.5661,0.0
mp-552992,Dy1Bi2Br1O4,8,1,123,142.79458737857396,8.423513003242995,17.849323422321746,3.59795013,-6.64414945125,-2.415745113333333,0.0,1.329,1.0
mp-552008,Dy1Bi2Cl1O4,8,1,123,137.8567719620325,8.189800366409605,17.232096495254062,3.62287869,-6.72164005375,-2.466786182708333,0.0,1.3739,1.0
mp-1195550,K8Ce4P8O32,52,4,14,700.135814839327,3.873099477449335,13.464150285371677,2.83110622,-7.523672961153846,-3.014878776060439,1.0,1.4179,1.0
mp-557649,K4Ce2Si12O30,48,4,15,702.9977565215955,2.961185700061082,14.645786594199906,0.96547855,-8.02561048125,-3.235151624145834,0.0,2.187,1.0
mp-1212039,K8Ce4Br20,32,3,62,1049.599786753922,3.909814700294259,32.79999333606006,2.0845646,-4.225367083437499,-2.177314334624998,0.0,0.1634,0.0
mp-1212138,K8Ce4Cl20,32,3,62,901.651565800478,2.914083815020952,28.17661143126493,2.67784452,-11.638416859375,-2.433497969375,0.0,0.3104,0.0
mp-1206010,K2Ce1F6,9,2,189,135.9449252861673,4.059012457943341,15.104991698463031,0.64083862,-5.846001343333332,-3.6590231693888873,0.0,2.1176,0.0
mp-21542,K4Ce2Ta10O30,46,1,127,637.8923282678847,7.096452020677534,13.867224527562712,4.28471291,-9.506416671304349,-3.34321049287681,0.0,0.0481,1.0
mp-21807,K8Co8S12O48,76,0,198,1020.6801404915084,3.151300090701049,13.43000184857248,1.22025775,-6.587050183815789,-1.938619465499999,0.0,2.7281,1.0
mp-1212556,K8Co4Br16,28,3,62,933.7251307983288,3.2491113758684422,33.34732609994032,0.86263058,-3.728340704285713,-1.450634660642856,1.0,0.972299999999999,0.0
mp-23515,K24Co12Cl48,84,3,33,2514.536425917414,2.210477015791259,29.934957451397786,0.61619627,-4.1449916148809525,-1.746373419809523,0.0,0.8932,0.0
mp-1206883,K2Co1F6,9,0,225,128.4604892654252,3.246094799082266,14.273387696158355,-2.8745351,-4.787270853333333,-2.467351918277778,0.0,1.1713,0.0
mp-1211977,K4Co2I8,14,4,11,583.5587843763163,3.669308837776349,41.68277031259402,1.0805649,-3.302926054285714,-1.089753679214285,0.0,0.550999999999999,0.0
mp-28890,K8Co4O8,20,4,14,397.44105063827726,2.826528752635311,19.872052531913862,1.35240871,-5.2823011165,-1.4238854814000002,1.0,0.1699,1.0
mp-505285,K16Co8Si8O32,64,3,29,963.5091349525557,3.160256216852377,15.054830233633682,2.01024826,-6.65970414609375,-2.33303936915625,1.0,2.9618,1.0
mp-561028,K4Cr4O14,22,4,15,353.1407675951838,2.76663056728745,16.051853072508354,-1.69242041,-7.037008194772725,-1.927502611090906,0.0,2.7644,1.0