material_id,composition,nsites,crystal_system,space_group,volume,density,density_atomic,efermi,energy_per_atom,formation_energy_per_atom,is_gap_direct,band_gap,is_oxide
mp-756254,Li4Ni4Sb4O16,28,3,74,324.7145787447152,5.142315921194237,11.596949240882685,3.703120949999999,-6.397877060714286,-1.882176374047619,1.0,1.920199999999999,1.0
mp-1079181,Li1Os1F6,8,6,148,98.66740265799402,5.236741605444871,12.333425332249252,-1.06839867,-11.565694305,-2.299681434583332,0.0,1.2041,1.0
mp-9588,Li8P8,16,4,14,248.52719555021827,2.026625484183503,15.532949721888642,4.12805224,-6.3110585625,-0.616667199821428,0.0,0.8094999999999991,0.0
mp-758098,Li2P6W4O24,36,5,2,497.70603569248914,4.4009262398138045,13.825167658124698,1.43900786,-8.277915612500001,-2.530852503458995,0.0,2.7689,1.0
mp-27687,Li8P56,64,1,142,1357.3671398103197,2.189873519980373,21.20886155953624,3.9000896,-8.3658560221875,-0.190700947499999,0.0,1.688199999999999,0.0
mp-1211106,Li2Pr4Ru2O12,20,4,14,250.4345882062332,6.442621033854562,12.52172941031166,3.69885047,-7.8327124195,-2.786508984166666,0.0,0.301499999999999,1.0
mp-1191159,Li8Pr8Sn8,24,2,186,619.3845790964509,5.717043230373733,25.807690795685456,4.14458707,-4.227066072083333,-0.6557440120833321,0.0,0.005,0.0
mp-14115,Li1Rh1O2,4,6,166,37.46631942068893,6.286704050612769,9.366579855172231,4.4847718,-6.348113114999999,-1.555824928333332,0.0,1.515299999999999,1.0
mp-1078834,Li1Ru1F6,8,6,148,96.2956870495676,3.828229910572081,12.036960881195949,-1.80409823,-8.12823274,-2.307306563958333,0.0,0.9999,0.0
mp-995393,Li2S8,10,5,1,2115.078462404796,0.212291455219233,211.50784624047955,-4.18569431,-4.303887513,-0.611415285666665,0.0,2.1989,0.0
mp-29892,Li2Sb6O16,24,4,14,270.8505755335312,6.133481830045935,11.285440647230466,4.8029141200000005,-6.450113695833334,-1.960145810277778,1.0,0.974399999999999,1.0
mp-4995,Li4Sb4O12,20,3,52,215.50013311485165,5.4462318959327884,10.775006655742583,3.64894126,-6.294555521499999,-2.118194097166666,1.0,2.1379,1.0
mp-756006,Li2Sb2S2,6,5,1,144.37090125257367,3.698227568919558,24.061816875428946,4.31440605,-4.345199538333333,-0.953104980277776,0.0,0.385899999999999,0.0
mp-1079885,Li2Sb2S4,8,4,15,169.30242856169352,3.782620384974135,21.16280357021169,4.96239156,-4.499614043750002,-0.920953233333334,0.0,0.091099999999999,0.0
mp-1001786,Li1Sc1S2,4,6,166,71.36198036372909,2.699858092095306,17.840495090932272,3.73710391,-6.1498234725,-2.020295695833332,0.0,1.4856999999999991,0.0
mp-1198027,Li8Si16B8,32,1,137,409.7964532056764,2.396351231642557,12.806139162677386,7.41429677,-5.0029624165625,-0.1432247421875,0.0,1.166799999999999,0.0
mp-973391,Li4Si4B24,32,3,64,281.67713989551106,2.35553937776949,8.80241062173472,5.18357231,-6.12850450375,-0.202180563541666,0.0,1.7307,0.0
mp-12448,Li2Sm4Os2O12,20,4,14,244.31203829312057,8.073062921920451,12.215601914656029,3.98391646,-8.0690573785,-2.8429345188333333,1.0,0.396099999999999,1.0
mp-1210954,Li2Sm4Ru2O12,20,4,14,241.10628850125863,6.952282919647443,12.055314425062932,3.73743224,-7.859963636000001,-2.829137265333334,1.0,0.3999,1.0
mp-1222296,Li1Sm1S2,4,6,166,85.47449220926171,4.301807668609495,21.368623052315428,2.2604998,-5.7790061875,-2.052949153333333,0.0,1.9482,0.0
mp-35388,Li2Sm2Se4,8,1,141,195.77890168871656,5.347223634393145,24.47236271108957,2.61552027,-17.114039415,-1.9283516161979184,1.0,1.5829,0.0
mp-1197059,Li4Sn4H24N12,44,4,14,620.3147279508877,1.86013158400048,14.09806199888381,2.47530309,-5.09625726,-0.432227570075757,0.0,2.881,0.0
mp-1029294,Li2Sn4N6,12,3,36,174.33071378390855,5.455688147704655,14.52755948199238,5.02449021,-6.020639900833333,-0.196823265555555,1.0,0.8538999999999991,0.0
mp-1029625,Li8Ta8N16,32,4,14,322.1823948481836,8.902141798950826,10.068199839005738,4.33837347,-18.613270008125,-1.304259891000001,0.0,0.389199999999999,0.0
mp-1206881,Li2Ta2S4,8,2,194,125.15500172365115,6.687502536811419,15.644375215456396,7.22833211,-7.035754876250003,-1.522612490166668,0.0,0.8540999999999991,0.0
mp-1210924,Li2Tb4Ru2O12,20,4,14,233.9421961294066,7.408375031174819,11.69710980647033,3.71929728,-7.879645379,-2.864963510666666,0.0,0.0814,1.0
mp-1222297,Li1Tb1S2,4,6,166,81.72231737318349,4.673361410034245,20.43057934329587,2.394956,-5.7952186475000005,-2.08934224125,0.0,2.0554,0.0
mp-15793,Li1Tb1Se2,4,6,166,92.8551015473329,5.790310650112732,23.213775386833223,2.57718696,-5.311206275,-1.926553913671874,0.0,1.5013,0.0
mp-773582,Li2Te2H24N8,36,5,2,389.5540763254325,1.72777019751345,10.820946564595348,0.45148709,-4.905563410833333,-0.5084891327777771,0.0,1.3014,0.0
mp-27466,Li12Te36,48,0,229,1435.5474755014086,5.409895533797263,29.90723907294601,4.72600986,-3.5317176554166663,-0.697007518749999,0.0,0.2237,0.0
mp-18640,Li2Ti4P6O24,36,6,167,452.4846148490083,2.8447677466583263,12.56901707913912,1.08185921,-8.202744660277778,-3.018196908273809,1.0,2.4425,1.0
mp-1029424,Li2Ti4N6,12,3,63,133.92080045595733,3.5882680730333902,11.16006670466311,3.52896278,-8.64994024916666,-1.5308168933333262,1.0,1.786099999999999,0.0
mp-756275,Li4Ti4Cr4O16,28,3,74,300.0235128547751,3.781342239386144,10.715125459099111,2.4253472,-8.493460436071429,-2.88641666845238,0.0,1.751399999999999,1.0
mp-772042,Li4Ti4V4O16,28,3,74,305.8032503808621,3.6869678872412273,10.92154465645936,3.39841199,-8.463699400714287,-2.937961547380953,0.0,0.762,1.0
mp-989512,Li1Tl2In1Cl6,10,0,225,268.52747905755245,4.59612192440054,26.852747905755244,0.87136364,-3.623921787999999,-1.5736920236666672,0.0,2.8771,0.0
mp-1176564,Li4Tm4O8,16,4,14,194.538234324863,7.097482214408746,12.158639645303936,4.89913285,-7.421100753125,-3.349264163958334,1.0,0.0001,1.0
mp-1223108,Li2U8As6O40,56,1,109,918.9054629022633,5.43501899739488,16.409026123254698,2.51827702,-8.532490006071429,-2.816627484494046,0.0,1.8788,1.0
mp-555232,Li4U16P12O80,112,4,14,1701.0830647303924,5.35706472047706,15.188241649378504,1.3120485,-9.025168193482145,-3.229446636955781,0.0,1.838899999999999,1.0
mp-558943,Li2U2As2O12,18,5,2,273.3171583907824,5.053456035820655,15.18428657726569,0.71140516,-7.993386797222223,-2.709139970648147,0.0,2.2759,1.0
mp-27403,Li8U8F40,56,1,88,712.2075783291616,6.341073321392527,12.7179924701636,3.54221547,-17.814366907857142,-3.820240795238096,1.0,0.147799999999999,0.0
mp-1222392,Li1U1I6,8,4,5,340.6808009009254,4.9053573968481095,42.58510011261568,1.56865244,-3.955713308749999,-1.1626622379166651,0.0,0.663199999999999,0.0
mp-8007,Li2U2O6,10,6,161,126.88718923279944,7.667992251454383,12.688718923279945,5.54832641,-8.957352078999984,-3.348508900666648,0.0,0.4431,1.0
mp-762019,Li1V1C2O6,10,6,148,97.10719112597572,3.042106302164876,9.710719112597571,3.78214723,-8.055318853,-2.141526257833334,0.0,2.0581,1.0
mp-1539853,Li2V2O4F4,12,4,11,130.6139873779603,3.251513803426885,10.88449894816336,-0.81876443,-6.836725545000006,-2.717316262222228,0.0,2.2316000000000003,1.0
mp-26955,Li4V4P16O48,72,3,60,1016.7100087976556,2.441837925937837,14.120972344411886,1.18152416,-7.784760638888888,-2.671968688994708,0.0,2.1576,1.0
mp-765346,Li8V8Si16O48,80,3,61,861.082527033572,3.2405355253185792,10.76353158791965,3.58051177,-8.127568372375,-2.974445269708334,0.0,2.1872,1.0
mp-1101601,Li4V8P12O48,72,4,13,885.9151262178558,2.952054680915471,12.304376753025776,1.2836494,-7.971580075000001,-2.6549863170701062,1.0,1.3092,1.0
mp-25812,Li2V4P10O32,48,4,7,653.3173070200177,2.641761555031484,13.610777229583702,3.03895214,-7.947295496458333,-2.683900550064484,0.0,0.032999999999999,1.0
mp-867665,Li2V6O4F12,24,4,14,274.39934526181054,3.70057483588008,11.43330605257544,1.78812715,-7.263363621250001,-3.051723843194445,0.0,1.4936,1.0
mp-559938,Li2V6Te4O24,36,5,2,453.1699574322205,4.44812350164615,12.588054373117236,2.00617359,-7.334756831111112,-2.066824335370372,0.0,1.924799999999999,1.0
mp-1280709,Li2V6Zn4O16,28,4,12,301.67240839965285,4.608086549803546,10.774014585701888,2.7368962,-7.4102690450000015,-2.31999644952381,0.0,1.377499999999999,1.0
mp-754895,Li2V2F8,12,4,14,128.70114757416502,3.45461590015493,10.725095631180418,-0.078899,-6.342902657500001,-3.234862918055556,0.0,2.455699999999999,0.0
mp-1029932,Li4V4N8,16,3,33,179.76813243281472,3.173721519615246,11.23550827705092,3.02861892,-9.70941348375,-1.025967612291667,0.0,1.3312,0.0
mp-19440,Li4V4O12,20,4,15,293.78309915898933,2.393861855937532,14.689154957949466,-1.437914699999999,-7.5945367915,-2.427194401166667,0.0,2.8357,1.0
mp-26227,Li4V4P8O28,44,4,15,506.387899981432,3.040798071303451,11.50881590866891,2.51892355,-7.851035802954545,-2.718353710010822,0.0,2.1466,1.0
mp-26127,Li4V4P4O16,28,3,63,295.667794444939,3.433851289866513,10.559564087319249,4.9905589,-7.813832311785714,-2.642382814353741,0.0,2.777299999999999,1.0
mp-26963,Li4V4P4O20,32,3,62,350.8850544978658,3.196345178908732,10.965157953058306,2.461679359999999,-7.8098087290625,-2.666295293184523,0.0,1.5636,1.0
mp-850189,Li2V2Sn2O8,14,3,74,169.12652851022693,4.724383142092846,12.080466322159069,3.99362028,-7.301646636428572,-2.331040234761905,0.0,1.4519,1.0
mp-15788,Li1Y1S2,4,6,166,81.09398007889097,3.275801840262089,20.27349501972274,2.93821393,-6.26149185,-2.087808474583332,0.0,1.920399999999999,0.0
mp-15794,Li1Y1Se2,4,6,166,92.09990726618337,4.575354967678076,23.02497681654584,2.3846198,-14.7993274525,-1.968470493697916,0.0,1.523899999999999,0.0
mp-561390,Li2Yb2P8O24,36,4,15,429.3100226413628,3.835967252512981,11.92527840670452,-0.06299054,-10.849584033333334,-2.7077709840873023,0.0,0.003599999999999,1.0
mp-9124,Li1Zn1As1,3,0,216,51.4734034663151,4.75100204634274,17.157801155438367,2.99085436,-3.131120646666666,-0.518190976944444,1.0,0.5518000000000001,0.0
mp-7575,Li1Zn1N1,3,0,216,28.78282869116706,4.982091077680031,9.59427623038902,3.19062686,-7.232156096666666,-0.423469533472221,1.0,0.5187,0.0
mp-10182,Li1Zn1P1,3,0,216,46.29883627834184,3.70577658318684,15.432945426113946,3.19037878,-7.422280926666667,-0.655819149880952,0.0,1.3386,0.0
mp-11175,Li1Zn1P1S4,7,1,82,153.98989737362206,2.497266967183973,21.998556767660293,1.76933536,-4.537172941428571,-0.946090331139454,0.0,2.731199999999999,0.0
mp-1222336,Li2Zn2Rh2F12,18,1,102,214.05590007006765,4.487651576331298,11.891994448337092,0.03770193,-4.857079505555555,-2.410847439259258,0.0,1.5896,0.0
mp-9919,Li2Zn2Sb2,6,2,186,121.3861262867238,5.310775589895061,20.2310210477873,4.47948322,-12.785949791666669,-0.451408208888887,0.0,0.4057,0.0
mp-973586,Lu2Al6C6,14,2,194,168.85467822621095,5.742025633246751,12.061048444729352,6.853481,-6.545326733571428,-0.338982244880951,0.0,0.152899999999999,0.0
mp-29339,Lu1Nb6Cl18,25,6,148,649.165839933465,3.505833313355534,25.9666335973386,1.87700709,-13.5093506272,-1.620221497666666,0.0,0.091999999999999,0.0
mp-1203980,Lu11Ni60C6,77,0,229,939.2115750848428,9.756439985521007,12.197552923179776,6.81030376,-6.161299955714286,-0.29222520582251,1.0,0.0259,0.0
mp-1203152,Lu20Os5I24,49,5,2,1861.9291834551568,6.6853930562931385,37.99855476439095,2.9976540700000003,-5.014695957346939,-1.277004345578232,1.0,0.016299999999999,1.0
mp-573376,Lu2C1Cl2,5,6,166,101.97525168913502,7.0484307265675294,20.395050337827005,2.66327015,-6.211872266,-1.8180470661666672,0.0,1.034399999999999,0.0
mp-8269,Lu4Cd2S8,14,0,227,336.7363374718067,5.824869883615719,24.05259553370048,1.89850093,-20.28102005357143,-1.937485141369048,1.0,1.2348,0.0
mp-14304,Lu4Mg2S8,14,0,227,326.5004352664525,5.111290095196812,23.321459661889463,2.14184867,-6.066661721428574,-2.177049836904763,1.0,1.9819,0.0
mp-10191,Lu4Mg2Se8,14,0,227,373.8432248231312,6.130394039278892,26.70308748736652,1.8643624,-5.469364488571429,-1.946865798244048,1.0,1.476999999999999,0.0
mp-19153,Lu4Mn4O14,22,0,227,231.7828861650061,8.193064074463457,10.535585734773004,2.7192505,-8.574763075454547,-2.938114664017765,0.0,1.112099999999999,1.0
mp-1103893,Lu4Mn2Se8,14,0,227,368.8212701395476,6.48970438195642,26.34437643853911,2.37076318,-6.307644660714287,-1.7092109308056251,1.0,0.7626000000000001,0.0
mp-1192803,Lu8Pb4S16,28,3,62,652.9929803982398,6.971735054910605,23.321177871365705,3.61695011,-6.099302765357144,-1.912237015833332,0.0,2.302,0.0
mp-753414,Lu4Pt4O14,22,0,227,253.3400718407925,11.170295130831974,11.515457810945112,5.28594687,-7.571723355909094,-2.497053484848487,0.0,1.657299999999998,1.0
mp-2826,Lu4S6,10,6,167,234.79907691597413,6.310200559334407,23.47990769159742,2.35414804,-22.40641765,-2.353466127354164,0.0,2.5664,0.0
mp-1189125,Lu8Se12,20,3,70,536.7983550660795,7.26103247248484,26.83991775330397,1.97353179,-25.9673875735,-2.148499361604166,0.0,1.3355,0.0
mp-1206825,Lu2Se1O2,5,6,164,79.4905816913324,9.627939356218242,15.89811633826648,3.74401479,-8.006941848,-3.519900169135417,0.0,2.0255,1.0
mp-1222448,Lu2Si9B36C1,48,4,8,485.0275825893726,3.4369841351260613,10.104741303945262,6.64560413,-6.604769288541667,-0.197310821475693,0.0,1.2246,0.0
mp-15170,Lu4Sn4O14,22,0,227,270.43947123858175,8.588226110636045,12.292703238117353,4.28334339,-7.72554446818182,-3.02570395439394,1.0,2.618299999999999,1.0
mp-1189748,Lu8Te12,20,3,70,664.6160970181179,7.322924845697291,33.2308048509059,3.93772443,-5.288796589000003,-1.59413807166667,1.0,0.5877999999999991,0.0
mp-755515,Lu6Te3O18,27,6,150,345.3432066478259,8.273244848165772,12.790489135104664,2.37767467,-7.7150877611111,-3.062371446666656,0.0,2.9817,1.0
mp-18332,Lu8Zn4S16,28,3,62,630.1673553030956,5.729741540082126,22.50597697511056,2.23348237,-18.70071097392857,-1.956373931011904,1.0,2.3856,0.0
mp-1199315,Lu24Ga16,40,1,140,916.3441434027176,9.631090286075493,22.908603585067944,3.19870557,-28.0655764195,-0.6405379294999981,0.0,0.026499999999999,0.0
mp-1189199,Lu6Sb8Au6,20,0,220,466.8103940681494,11.403257705190263,23.34051970340747,6.21076312,-37.708283849,-0.826305456999995,0.0,0.5770999999999991,0.0
mp-1210662,Lu16Cd4Ni4,24,0,216,563.8094107535676,10.260798550327925,23.49205878139865,3.33475703,-4.454866559166665,-0.317050445277776,0.0,0.052899999999999,0.0
mp-1210803,Lu16Cd4Pt4,24,0,216,589.3683561345854,11.352938096088694,24.557014838941058,3.45152798,-4.810489975833339,-0.62417442194445,0.0,0.0145,0.0
mp-1210928,Lu16In4Rh4,24,0,216,585.6517030214557,10.406844375721194,24.40215429256065,4.30909023,-33.83791339166667,-0.6655234344444381,0.0,0.024799999999999,0.0
mp-1211003,Lu16Mg4Ni4,24,0,216,588.7625626229942,8.831949065082972,24.53177344262476,3.39060407,-4.466512575416666,-0.21695315736111,0.0,0.0158,0.0
mp-1210574,Lu5Re2O12,19,4,12,233.49524867927155,10.235399858035173,12.289223614698503,4.05184318,-9.02776114263158,-3.402487577280703,0.0,0.023799999999999,1.0
mp-1210969,Lu12Al86V8,106,2,193,1772.7148292686145,4.522065505540085,16.72372480442089,7.27758506,-11.159601948207548,-0.32341681216981,1.0,0.008799999999999,0.0
mp-1201491,Lu6H40N8O49,103,5,2,986.746527246695,3.342367346341652,9.580063371327135,-0.47146766,-6.155673761650486,-1.572245669660194,0.0,2.9824,1.0
mp-755804,Lu6Te1O12,19,6,148,237.5711416867568,9.571589995543858,12.503744299302989,2.27786483,-8.369933911052634,-3.651567454561405,0.0,2.8127,1.0
mp-20402,Lu6U1O12,19,6,148,247.47089004268875,9.929673270711008,13.024783686457305,2.16872293,-9.213171685789474,-4.065957644210526,0.0,1.9232,1.0
mp-1018025,Lu1Ag1O2,4,6,166,61.0765688395842,8.559651703209585,15.26914220989605,1.1285895,-7.024019742499998,-2.708882957083331,0.0,2.153,1.0
mp-14802,Lu12Au24F108,144,3,60,2220.851565997444,6.63858443888876,15.422580319426697,-1.92967251,-4.743816767847222,-2.385973198819444,0.0,1.9441,0.0
mp-545847,Lu1Bi2Br1O4,8,1,123,139.43952836009333,8.774656788566745,17.429941045011667,3.68937843,-6.644609340000001,-2.428291011458334,0.0,1.3984,1.0
mp-550805,Lu1Bi2Cl1O4,8,1,123,134.12530399892336,8.57199460348832,16.76566299986542,3.78318927,-6.72475308125,-2.481985219583334,0.0,1.461799999999999,1.0
mp-550635,Lu1Bi2I1O4,8,1,123,147.7127098202603,8.81156484290883,18.464088727532538,4.3971935,-6.53657030875,-2.334368720208334,0.0,1.4425,1.0
mp-1190663,Lu4Cr4B16,24,3,55,226.0104366403208,7.941039401410469,9.41710152668003,6.39931599,-7.515905044166666,-0.700521376388888,0.0,0.209799999999999,0.0
mp-755471,Lu4Cr4O12,20,3,62,210.0228117255138,8.695893111836789,10.50114058627569,3.5308888400000003,-9.0573971395,-3.253673551833335,0.0,2.5313,1.0
mp-19360,Lu2Cr2O8,12,1,141,148.80382346817672,6.4938063812400575,12.40031862234806,1.89611733,-8.447156966666666,-2.7860604761111123,0.0,0.284999999999999,1.0
mp-1222325,Lu2Cu2Pb2S6,12,3,36,253.64084115592087,7.095540295499186,21.13673676299341,4.99282134,-5.4686388125,-1.34386882986111,1.0,1.5137,0.0
mp-1001780,Lu1Cu1S2,4,6,156,77.05730068446398,6.521776914959418,19.264325171116,4.38982421,-17.831548545,-1.582379958072916,0.0,1.461999999999999,0.0
mp-768505,Lu6Ga6O18,30,2,185,349.22964111405213,8.350153593190138,11.64098803713507,1.70077721,-7.698665589333334,-3.219932291166668,0.0,2.8917,1.0
mp-1191245,Lu6H18,24,6,165,205.1742201125912,8.643211898960123,8.548925838024633,2.6852967100000003,-12.823868815833334,-0.712564469062499,1.0,0.0156,0.0
mp-1206843,Lu1H1Se1,3,2,187,46.15017638629439,9.17286694135034,15.383392128764797,4.17794847,-20.206976153333333,-1.591458548159721,0.0,1.4615,0.0
mp-865521,Lu2I6,8,2,194,419.6881369597765,4.397212825854743,52.46101711997206,-0.08117032,-3.86627545,-1.592844125416666,0.0,2.1804,0.0
mp-542397,Lu4Mn8O20,32,3,55,335.60508090052355,7.220763414919025,10.48765877814136,3.21631138,-8.605901381875,-2.657710999066092,1.0,0.7359,1.0
mp-1102,Lu1N1,2,0,225,26.35460621001421,11.906769120713,13.177303105007107,4.01818412,-25.82002131,-2.215705882708334,0.0,0.233099999999999,0.0
mp-1211982,Lu4Nb24Cl52O12,92,1,98,2356.4966337677483,3.498778019166817,25.61409384530161,1.19274316,-6.649761446956521,-2.127828529202898,0.0,0.947099999999999,1.0
mp-30457,Lu1Ni1Bi1,3,0,216,63.88746627397729,11.504953690274414,21.295822091325764,6.14925575,-36.89971969,-0.71176266055555,1.0,0.012699999999999,0.0
mp-20185,Lu1Ni1Sb1,3,0,216,59.9789787951241,9.83993844380987,19.992992931708034,6.76159322,-26.24416223333333,-0.9881912088888832,0.0,0.214599999999999,0.0
mp-30287,Lu4P4S16,24,4,14,578.9423883530125,3.834256620713034,24.122599514708853,1.95575114,-14.38205547,-1.178396665982141,1.0,2.179,0.0
mp-1222263,Lu1Pa1O4,6,1,123,74.19868819254614,10.518436071746546,12.366448032091023,5.39100977,-9.844134806666666,-4.201163364444445,0.0,2.4908,1.0
mp-1211006,Lu4Pt4F28,36,4,14,476.1101840610322,7.017848431854984,13.225282890584229,-1.05890852,-15.201524915,-2.818214611296295,0.0,2.2198,0.0
mp-1205366,Lu4Rh4O12,20,3,62,218.14931123596665,9.922030465179358,10.90746556179833,4.55708981,-7.958022456500001,-2.612046788833334,1.0,1.0887,1.0
mp-27246,Lu2S2Br2,6,3,59,170.0124448395273,5.605100709700052,28.33540747325455,-0.36488912,-5.788206323333331,-2.355875138055554,1.0,2.9943,0.0
mp-555850,Lu2S2F2,6,6,166,109.29380601214936,6.868318131609888,18.215634335358228,2.1286969,-19.703153546666663,-3.28951780815972,0.0,2.614099999999999,0.0
mp-1237257,Lu4Sb4O16,24,4,14,287.1481379275332,8.344087409472607,11.96450574698055,3.55651545,-7.631731781666666,-2.891309662777777,0.0,2.3433,1.0
mp-662606,Lu4Ta24Br52O12,92,1,98,2501.7718897506447,6.232313761492257,27.19317271468092,1.465097839999999,-6.680800580434783,-1.8178683769855064,0.0,0.9255,1.0
mp-1210736,Lu2Tl2W4O16,24,4,15,322.92111988326394,8.999188579219984,13.455046661802664,2.63023714,-8.5418075975,-2.509048591666667,0.0,2.775,1.0
mp-1001604,Lu1Tl1S2,4,6,166,99.82527511955028,7.377053181527015,24.956318779887567,3.91297226,-5.517814364999989,-1.72534468874999,0.0,1.3485,0.0
mp-1001611,Lu1Tl1Se2,4,6,166,111.507565206564,8.000877077902372,27.876891301641,3.53029508,-5.060486024999989,-1.589240393671866,0.0,1.212899999999999,0.0
mp-1017508,Lu1Tl1Te2,4,6,166,134.80898009245905,7.816211962660575,33.70224502311476,4.66634,-4.508371427499995,-1.21342858833333,0.0,0.7908000000000001,0.0
mp-2767717,Lu4V4O12,20,4,14,215.19981862324127,8.4541479423787,10.759990931162063,5.65697231,-17.378715599,-3.363412194333333,0.0,0.261099999999999,1.0
mp-18993,Lu2V2O8,12,1,141,150.99900717505648,6.376206224158125,12.583250597921372,0.70353953,-8.777719206666667,-3.211479616111111,0.0,2.9436,1.0