material_id,composition,nsites,crystal_system,space_group,volume,density,density_atomic,efermi,energy_per_atom,formation_energy_per_atom,is_gap_direct,band_gap,is_oxide
mp-924128,Hf1Ni1Sn1,3,0,216,55.87207864201944,10.577284908828306,18.62402621400648,7.18349144,-7.213027586666665,-0.630728398333329,0.0,0.386899999999999,0.0
mp-985829,Hf1S2,3,6,164,69.47166295179909,5.79919885634548,23.15722098393303,2.31448794,-22.21349178333333,-1.806353931875001,0.0,1.2237,0.0
mp-9922,Hf2S6,8,4,11,167.9432437929641,5.431896671846112,20.992905474120512,3.27559562,-18.68718625375,-1.373083094609374,0.0,1.1326,0.0
mp-1224358,Hf1Sb4Mo1,6,4,8,138.58759519445024,9.123837391577288,23.09793253240837,8.20445755,-29.242637935,-0.234528309999997,0.0,0.1391,0.0
mp-985831,Hf1Se2,3,6,164,78.74332002833815,7.09421379735918,26.247773342779382,2.55171849,-26.15645825,-1.564946299374999,0.0,0.5342,0.0
mp-866062,Hf1Si1Ru2,4,0,225,57.93254776336947,11.715142542101075,14.483136940842368,8.76582726,-27.0636156275,-0.87005298375,0.0,0.169499999999999,0.0
mp-11869,Hf1Sn1Pd1,3,0,216,63.06881551332067,10.626912406806408,21.022938504440223,6.43710802,-31.73468563,-0.782001370000003,0.0,0.0338,0.0
mp-8725,Hf4Sn4S12,20,3,62,492.4676860327046,5.305913745266324,24.62338430163523,3.72188642,-20.087042453,-1.286523169687501,0.0,1.1981,0.0
mp-1212434,Hf4Te28Se4Cl24,60,4,14,2061.975655249977,4.391760533909598,34.36626092083296,2.09214667,-4.095300142333333,-0.992133571600694,1.0,1.0147,0.0
mp-1189341,Hf2Tl4Pb2Se8,16,4,15,466.2316707245684,7.908904502123943,29.13947942028552,4.24094523,-5.10051272375,-1.050959443255209,0.0,0.6334000000000001,0.0
mp-1102545,Hf2Tl4Se6,12,4,11,342.78470167259434,7.984668007862322,28.56539180604953,3.8032954,-5.320310621666664,-1.122332672282985,0.0,0.6963,0.0
mp-9396,Hf2Tl2Cu2S6,12,3,63,256.9905352757109,7.012182314645516,21.415877939642574,4.86807368,-6.055692615833332,-1.248534862638887,0.0,0.7967000000000001,0.0
mp-9397,Hf2Tl2Cu2Se6,12,3,63,291.4186664517939,7.787045323111618,24.284888870982822,4.47537098,-5.572848469999999,-1.08691476172743,0.0,0.419999999999999,0.0
mp-505679,Hf4V8O28,40,0,205,697.2273396013662,3.737912637146308,17.430683490034156,-1.691398889999999,-9.162428347749998,-2.8863555272499983,0.0,2.7436,1.0
mp-1014251,Hf1Zn1N2,4,6,156,47.97587059517867,9.41142197716244,11.993967648794667,4.06665717,-19.32228477,-1.242404935625,0.0,2.3179,0.0
mp-3810,Hg1As2O6,9,6,162,103.82148084854546,7.140273720118076,11.53572009428283,2.22857121,-5.836152133333333,-1.465298451944445,0.0,0.7083,1.0
mp-29170,Hg2Au4F16,22,1,124,345.95923143530183,7.166217922480215,15.725419610695536,-2.39848593,-17.251372934545454,-1.292650168863637,1.0,1.573799999999999,0.0
mp-554921,Hg2Bi4S8,14,4,12,366.4148000992756,6.768877831478459,26.17248572137683,3.29736381,-4.102446295714283,-0.581992163214284,1.0,1.1861,0.0
mp-761037,Hg2Cl4O12,18,4,4,276.0372939311868,4.421398849321563,15.335405218399266,-0.62700341,-4.176794112222222,-0.432958149166667,0.0,2.6494,1.0
mp-23407,Hg2I4O12,18,4,4,284.9834370398994,6.4140777698363625,15.8324131688833,2.10665207,-4.476183195,-0.8044650508333331,1.0,2.6932,1.0
mp-27779,Hg4Mo24Cl56,84,0,201,2158.89606822273,3.915251970051361,25.701143669318213,1.50855369,-14.933498147619048,-1.031887303452381,1.0,1.73,0.0
mp-15994,Hg8P16O48,72,3,61,967.97182670578,4.920470377982254,13.444053148691388,0.38511951,-6.735096833194437,-2.198609597837295,1.0,2.5782,1.0
mp-754065,Hg1Sb2O6,9,6,162,119.68697684837184,7.493444992406346,13.298552983152426,2.98304406,-5.870987935555555,-1.6203834302777782,0.0,0.5173000000000001,1.0
mp-542596,Hg4Sb16S32,52,4,15,1309.9120165734464,4.787490884560441,25.190615703335503,4.1501674,-4.361878928846144,-0.5209132721153741,0.0,1.258,0.0
mp-540925,Hg8As4F24,36,4,14,607.2073956799209,6.454933571243915,16.866872102220025,-0.64515138,-16.548800768611112,-1.859988353888891,0.0,1.4207,0.0
mp-3167,Hg2Ge1Se4,7,1,82,190.6420703109932,6.878131763845744,27.234581472999025,1.61949291,-3.248963432857144,-0.502389455625003,1.0,0.4336,0.0
mp-28136,Hg8I4O4,16,4,15,422.207122252948,8.55951947774711,26.387945140809247,1.06356869,-2.314043820000002,-0.541214396250005,0.0,0.9192,1.0
mp-558802,Hg4Mo2O8,14,4,15,230.5991164629462,8.081190509735118,16.471365461639014,0.48853849,-5.822510665714288,-1.357248065000004,0.0,1.8942,1.0
mp-5824,Hg8N4O16,28,4,14,429.5496859415413,7.40965970916495,15.341060212197904,-0.44001223,-4.846610129285714,-0.739543580714287,0.0,1.5703,1.0
mp-28455,Hg4P4O14,22,5,2,293.8447754557699,6.500130867622658,13.356580702534997,1.19963644,-6.162023339090909,-1.972385324480519,0.0,1.484199999999999,1.0
mp-27171,Hg2P2S7,11,4,5,263.4238808039259,4.334298162827825,23.947625527629626,1.92581662,-4.164754943636364,-0.490317843798701,0.0,1.809499999999999,0.0
mp-28875,Hg4P6Cl2,12,4,15,268.26364091791896,6.555831247049422,22.35530340982658,3.0069363,-22.229110731666665,-0.246730585238097,0.0,1.1347,0.0
mp-561472,Hg8P4O12F4,28,3,72,530.0687805636511,6.254725514231465,18.93102787727325,-0.232026899999999,-5.144883202142857,-1.88880420352041,1.0,1.452,1.0
mp-7461,Hg4S2O8,14,4,13,236.17532142063288,6.992184940501769,16.869665815759493,-0.19330883,-4.85226468,-1.345186442500002,0.0,1.9921,1.0
mp-557637,Hg8Se4O12,24,3,72,499.5445688466656,7.022349302594426,20.81435703527773,-0.40853494,-4.08520391,-0.9253474820572932,1.0,2.328999999999999,1.0
mp-30123,Hg16Se8O40,64,4,14,980.9055503613972,7.585883234571847,15.32664922439683,-0.01871328,-4.5261938790625,-0.91931130685547,0.0,1.0118,1.0
mp-570125,Hg8Te4Br12,24,4,14,781.2725662269381,6.533499541817481,32.55302359278909,0.14557468,-2.177913859583332,-0.7323322640277781,0.0,1.882099999999999,0.0
mp-29894,Hg4W2O8,14,4,15,229.9181427462662,9.374806762425225,16.422724481876156,0.57362723,-6.215815750000003,-1.448770275000004,0.0,1.9051999999999991,1.0
mp-8975,Hg12As8O32,52,4,14,773.6571209326677,7.551790435270299,14.878021556397456,0.58646606,-5.075032399615386,-1.240190152115388,0.0,1.0974,1.0
mp-4710,Hg6B4O12,22,6,167,303.49333289931684,7.872150144762249,13.795151495423491,-0.56912701,-5.661620642727272,-1.663841944166668,1.0,2.629,1.0
mp-559722,Hg24N16O64,104,3,61,1593.6507433254758,6.316671199902746,15.323564839668036,-0.28670751,-5.158125540865384,-0.7589517222115401,0.0,0.8522000000000001,1.0
mp-12199,Hg12P8O32,52,4,14,718.9500365972689,7.314388153861302,13.825962242255171,1.12971715,-5.749197597115384,-1.799685966098902,0.0,1.507099999999999,1.0
mp-29096,Hg12S8Br8,28,4,12,813.2794616198861,6.743661711919598,29.04569505785308,0.01686857,-2.394800703214287,-0.6119966578571461,0.0,1.487,0.0
mp-23418,Hg6S4Cl4,14,0,199,373.06733779805165,6.559111578765871,26.64766698557512,-0.01639005,-2.546704589999994,-0.703444468928568,0.0,1.9398,0.0
mp-7580,Hg6S4F4,14,0,199,274.75303197115613,8.50835484869105,19.62521656936829,0.146110799999999,-2.8842992178571443,-1.022379218214289,0.0,1.8372,0.0
mp-29956,Hg12S8I8,28,3,74,917.2280041611144,6.660122097637196,32.75814300575409,0.72078332,-2.217476547142857,-0.466939336071431,0.0,1.3129,0.0
mp-31075,Hg12Se8Br8,28,4,12,848.5485533484597,7.197524971955516,30.3053054767307,-0.00752041,-2.244906995714286,-0.64565954745536,0.0,1.3272,0.0
mp-27851,Hg6Se4Cl4,14,0,199,391.7744078654885,7.040976025341806,27.98388627610632,-0.09122738,-27.518089149285714,-0.5136008886607121,0.0,1.7701,0.0
mp-1212164,Hg6Se4F4,14,0,199,305.06984754268655,8.683848080090897,21.79070339590618,-0.20193447,-27.00679002214286,-0.8669906036607161,0.0,1.9752,0.0
mp-29955,Hg12Se8I8,28,3,74,963.945317920206,6.983610180124352,34.426618497150216,0.55387029,-2.072216898928571,-0.505236284955359,0.0,1.297,0.0
mp-27853,Hg6Te4Br4,14,0,199,464.063449857912,7.276589404213465,33.147389275565146,0.65544914,-2.111136350714287,-0.612633355119052,0.0,1.704,0.0
mp-27852,Hg6Te4Cl4,14,0,199,426.6729365141153,7.222273620391994,30.47663832243681,0.8419448700000001,-30.66163133,-0.484096189642859,0.0,1.9134,0.0
mp-28579,Hg12Te8I8,28,4,15,1047.6930295692646,7.042107839487522,37.41760819890231,1.28514551,-1.9411515028571464,-0.474915341547625,1.0,1.4667,0.0
mp-27292,Hg6As4F24,34,4,14,549.1289848232561,5.9244884722128415,16.15085249480165,-2.09100561,-14.610797633235292,-1.961926048382353,0.0,2.6234,0.0
mp-555833,Hg6As16S16Br12,50,4,14,1700.311924204258,3.783550842649704,34.00623848408516,0.29580663,-3.790458602999999,-0.5417165181,0.0,1.7802000000000002,0.0
mp-4445,Hg12As4O16,32,4,14,561.6064054579748,8.760180374408053,17.550200170561713,0.604935999999999,-4.233052750937499,-1.059179917812502,0.0,0.5021,1.0
mp-1203433,Hg12As4O20,36,4,14,575.0555380294812,8.740101770736748,15.973764945263367,0.55790218,-4.430336088333336,-1.059342347222227,0.0,1.3663,1.0
mp-1104411,Hg3Bi2S2Cl8,15,4,12,429.1832321729204,5.290891542721745,28.61221547819469,0.43304181,-3.21811063,-1.099834212166668,0.0,2.7814,0.0
mp-1198489,Hg12H16I8O48,84,4,14,1075.6858279961668,6.493452451916158,12.805783666621034,2.20871708,-4.498372676547619,-0.834885097619049,0.0,1.144299999999999,1.0
mp-554914,Hg12P4O16,32,4,14,569.7441310601517,8.122707635543463,17.804504095629742,0.02652683,-4.780033393749999,-1.512991686517859,0.0,2.2021,1.0
mp-30890,Hg9S3O18,30,6,144,441.268022967525,8.23930234224492,14.7089340989175,0.61464848,-4.663188231333332,-1.187674060333334,0.0,0.5752,1.0
mp-542115,Hg6Se6O20,32,4,4,481.7116702017816,6.884979037070284,15.053489693805677,0.5829352600000001,-4.823444189375,-1.017421652158204,1.0,1.8688999999999991,1.0
mp-754598,Hg9Se3O18,30,6,144,461.40257500825146,8.386068486309458,15.380085833608382,0.40229746,-4.287424007333338,-0.876154645317715,0.0,0.4367,1.0
mp-29097,Hg24Te8Br32,64,3,61,2311.6195791515465,6.028266066013526,36.11905592424292,-0.37130001,-2.06668150609375,-0.739167987864585,0.0,2.0454,0.0
mp-29102,Hg24Te8Cl32,64,3,61,1871.5121248830824,6.183798548284994,29.24237695129816,-0.20325843,-25.3882294465625,-0.621929513125003,1.0,2.3567,0.0
mp-3538,Hg24Te8O48,80,0,206,1243.7122058745706,8.815886151058477,15.546402573432132,1.2337229,-4.397884982000002,-1.021876178416671,1.0,1.236899999999999,1.0
mp-1190557,Hg8Bi2S4Cl10,24,4,4,735.669620296984,5.655299646526143,30.652900845707663,2.24804936,-2.8080883470833333,-0.920742047500002,1.0,2.3713,0.0
mp-1194941,Hg16Bi4Se8Cl20,48,4,14,1517.9306964059929,5.892121520865935,31.62355617512485,-0.132679,-2.715047867916666,-0.93477624997396,0.0,2.105,0.0
mp-31132,Hg8O2F12,22,2,186,318.3403211187897,9.726718205711238,14.470014596308625,-0.67044495,-3.125178201818181,-1.518836074090911,1.0,0.2036,1.0
mp-29710,Hg8P4O14,26,4,13,429.6619755647263,7.546349933445363,16.525460598643317,0.6410947300000001,-5.319461209999999,-1.726741038021978,0.0,1.588499999999999,1.0
mp-646297,Hg8Pb4N12O38,62,0,227,937.2158218741442,5.686661351306088,15.11638422377652,-0.38065289,-5.844588594354839,-0.91862382483871,0.0,1.8082,1.0
mp-29043,Hg32Sb16I24,72,0,205,2691.843812702575,7.040272034448397,37.3867196208691,1.76122661,-1.913352600138889,-0.350160547361113,0.0,0.726799999999999,0.0
mp-23358,Hg10Cl4O8,22,3,72,426.82732052950286,8.853464921258938,19.40124184225013,0.38953132,-3.028221203636362,-0.752103948409092,0.0,0.186199999999999,1.0
mp-28889,Hg20Sb8I24,52,3,33,1974.593801653128,6.754181256966425,37.972957724098606,1.4420424,-1.894519152884614,-0.436793125384616,1.0,1.5463,0.0
mp-570652,Hg24Bi4As16Cl28,72,0,205,1865.922272528306,6.978391265536445,25.91558711844869,1.10834151,-25.928926945972226,-0.561909773055551,1.0,1.3316,0.0
mp-568828,Hg24Bi4Sb16Br28,72,0,205,2298.055176693274,7.107018647802543,31.917433009628805,1.15847755,-2.502961284027776,-0.629478104027778,1.0,1.079,0.0
mp-1200201,Hg24P16Pb4Cl24,68,0,198,1785.1559762756394,6.501500233946094,26.252293768759404,1.38987309,-2.940969557794117,-0.6866266050630271,0.0,2.1079,0.0
mp-23453,Hg24Sb20Br28,72,0,205,2289.154270188782,6.8815761668702375,31.79380930817753,1.27811233,-2.495536325277773,-0.60877720472222,0.0,1.0115,0.0
mp-29958,Hg14P4O20,38,4,14,614.0859635155122,8.794062887319495,16.16015693461874,0.6155143200000001,-4.687964890526319,-1.399635345093989,0.0,1.6085,1.0
mp-541193,Hg28Cl8O12,48,3,57,1101.372578455472,9.185112607087216,22.945262051155662,0.58217091,-2.336352967708331,-0.6106302279166691,1.0,1.3838,1.0
mp-1205446,Hg32Br12O16,60,4,14,1394.1229179182892,9.092517929158811,23.23538196530482,0.3481822,-2.431586908166665,-0.619582913166669,0.0,0.6139,1.0
mp-568804,Hg36Bi8As16Br48,108,1,78,3684.393408277625,6.276933992880889,34.11475378034837,0.0008024,-2.471231934537036,-0.660455434259261,1.0,1.1979,0.0
mp-1195481,Hg4As8Xe20F88,120,3,33,2424.07540590598,3.904236290983755,20.20062838254984,-4.00609459,-3.2920929825,-1.560908309083334,1.0,2.1803,0.0
mp-1195247,Hg4As4F28,36,4,14,534.0893349165092,5.080280513175504,14.835814858791922,-3.55750841,-11.57721345,-2.026376432222223,0.0,2.4936,0.0
mp-30284,Hg2As2O6,10,6,162,157.81998171998964,6.807764840336567,15.781998171998964,0.35074594,-5.326915276999998,-1.362179759999999,1.0,1.235099999999999,1.0
mp-16585,Hg8B32O56,96,3,61,1052.8055350113582,4.489864570889362,10.96672432303498,0.07365636,-7.6227689971874995,-2.484188484201388,1.0,2.7564,1.0
mp-23177,Hg2Br2,4,1,139,126.95326347785604,7.337680531987949,31.738315869464007,-0.97551735,-1.662405962499999,-0.689096676250002,0.0,2.2557,0.0
mp-23292,Hg2Br4,6,3,36,207.27383454880425,5.774534541006871,34.54563909146737,-1.73969353,-2.023291951666669,-0.8287702491666711,0.0,2.5527,0.0
mp-22897,Hg2Cl2,4,1,139,113.267339996862,6.920946901522058,28.3168349992155,-0.99028447,-28.3813745225,-0.621251812500002,0.0,2.7243,0.0
mp-22855,Hg4Cl8,12,3,62,339.6929744266541,5.308672811812608,28.30774786888784,-1.65275638,-21.241047114166665,-0.683485675,1.0,2.8686,0.0
mp-706,Hg2F2,4,1,139,73.9382192262809,9.86323787350034,18.484554806570227,-1.1701719,-27.560985235,-1.314067998750001,0.0,1.7704,0.0
mp-8177,Hg1F2,3,0,225,42.88560780715456,9.238127499184849,14.295202602384853,-1.328695,-20.112465686666667,-1.5725115458333332,1.0,0.9687,0.0
mp-24426,Hg4H8Se4O20,36,4,14,462.4672914101608,5.192923248186426,12.846313650282246,-0.26431079,-5.0071051525,-1.080913883871528,1.0,1.4897,1.0
mp-24294,Hg4H4Cl4O16,28,3,57,412.63635588635486,4.84594102755766,14.73701271022696,-0.40911261,-4.304102236428571,-0.6833557655357151,0.0,2.3817,1.0
mp-696272,Hg4H4N4O16,28,4,14,353.043733021669,5.260429790440405,12.608704750773894,-0.25678476,-5.423578927142857,-0.8757274641071431,0.0,1.5664,1.0
mp-23844,Hg4H4O4F4,16,3,19,218.8777905264483,7.179832611246826,13.67986190790302,-1.05333521,-3.97405636875,-1.332393404687502,0.0,1.459099999999999,1.0
mp-22859,Hg2I2,4,1,139,151.3211478162347,7.187592340905009,37.83028695405868,0.57835375,-1.3604090299999991,-0.443566703750002,0.0,1.6513,0.0
mp-23192,Hg2I4,6,1,137,256.0028709572018,5.894833826436059,42.66714515953364,0.16554319,-1.683849816874996,-0.564617394374998,1.0,1.3324,0.0
mp-557250,Hg4I4N4O12,24,3,62,541.6044021001806,4.776762654018852,22.56685008750752,-0.32414168,-4.920414488333334,-0.7511069195833351,1.0,1.9661,1.0
mp-19363,Hg2Mo2O8,12,4,15,165.06995857909925,7.253532617816265,13.755829881591604,0.75607134,-6.6979259825,-1.5400649545833351,0.0,2.2557,1.0
mp-542289,Hg8N8O24,40,4,4,611.8695774515091,5.7012030826059785,15.296739436287728,-1.24438467,-5.445975904999999,-0.7476093455,0.0,2.568699999999999,1.0
mp-1224,Hg4O4,8,3,62,133.5742810249583,10.77019190675644,16.69678512811979,0.46310693,-3.26387400375,-0.635057482500004,0.0,1.1867,1.0
mp-22574,Hg4P56Pb4,64,3,62,1438.3368536218566,3.88564113675734,22.47401333784151,4.24215829,-14.518967126875,-0.038841564322915,0.0,1.3483,0.0
mp-1190352,Hg2P4Pd2O14,22,4,15,315.8020830316429,5.057862671748778,14.35464013780195,1.31977366,-6.589951628181819,-1.9575672706168832,0.0,1.3365,1.0
mp-1195071,Hg4P8Xe20F88,120,3,56,2358.577002738847,3.765128866420018,19.65480835615706,-3.84942191,-3.522843087583333,-1.741968347976191,1.0,2.0719,0.0
mp-27178,Hg2P2S6,10,5,2,236.62949411143137,4.60007093169168,23.66294941114314,1.60936148,-4.112753571000002,-0.484708717928573,0.0,1.7549,0.0
mp-7293,Hg4P4Se12,20,4,15,536.7001893082713,5.797420480202423,26.835009465413567,1.30768617,-20.442503977,-0.181591271532738,0.0,1.2066,0.0
mp-546862,Hg1Pb2Cl2O2,7,4,12,159.6876182370391,7.465152115547622,22.812516891005583,2.70593647,-4.403101022857142,-1.356247624642857,0.0,2.247799999999999,1.0
mp-35659,Hg1Pb1F6,8,6,148,126.93730150000889,6.825706549847083,15.86716268750111,-2.42651258,-17.40539493625,-1.854256394687503,1.0,1.3192,0.0
mp-1200258,Hg4S8O28,40,4,14,558.4759922279786,4.480416788624371,13.961899805699463,-0.35281926,-5.863680814999999,-1.541468994249999,0.0,2.6024000000000003,1.0
mp-1106367,Hg4S16,20,3,57,2224.979510828908,0.9817048101229012,111.2489755414454,-3.40215467,-3.5574351195,-0.184813058,1.0,1.047499999999999,0.0
mp-3228,Hg2S2O8,12,3,31,153.94550778114908,6.39970907379453,12.828792315095756,0.91787753,-5.5098578775,-1.4698786066666671,0.0,1.3525,1.0
mp-1199212,Hg4Sb8F52,64,4,14,1037.7538482940522,4.423325188609056,16.214903879594566,-3.07235523,-4.3691035951562505,-2.278618883125001,0.0,0.201899999999999,0.0
mp-1195399,Hg4Sb8Xe20F88,120,4,14,2583.234002562519,3.904554951642053,21.526950021354324,-3.96918134,-3.339992863416666,-1.6448829428333331,0.0,2.2327,0.0
mp-559509,Hg4Sb12Xe4F68,88,4,14,1633.9634535211264,4.146911452199544,18.567766517285527,-3.22629171,-4.450969216022727,-2.393317384090909,1.0,2.5858,0.0
mp-1018722,Hg3Se3,6,6,154,167.628586361131,8.307718381660244,27.938097726855165,1.0616717,-32.07660409,-0.23692071328125,0.0,1.0432,0.0
mp-9228,Hg4Se4O12,20,3,62,305.0066542589892,7.133045455889164,15.25033271294946,0.50270345,-4.778405937000002,-1.048512630968753,0.0,2.5571,1.0
mp-10796,Hg2Se2O8,12,3,31,168.5864978164532,6.767733103486947,14.048874818037769,0.21520854,-4.897849080833329,-0.964944491640622,0.0,0.8439999999999991,1.0
mp-1192364,Hg2Te4O4F20,30,4,15,529.4622554195934,4.2513635459215,17.64874184731978,-2.12412205,-4.482473726999999,-2.107091754722222,0.0,2.4788,1.0
mp-1224178,Ho2Cu6S6,14,6,148,241.40541429195,6.215027479124213,17.243243877996424,5.20684125,-13.794232795,-1.004700057633925,0.0,1.4907,0.0
mp-1212366,Ho2Zn6P6,14,2,194,268.56894455003777,5.615059223124635,19.18349603928841,4.07006088,-4.118617137857146,-0.600998441989797,0.0,0.3817,0.0
mp-2214312,Ho10Te7S10,27,5,2,748.6563081444706,6.350547895661803,27.72801141275817,5.24812165,-23.739975272222225,-1.996123415115739,0.0,1.9446999999999992,0.0
mp-677152,Ho10Te7S10,27,5,1,755.5736092720119,6.292408421783816,27.98420775081526,3.43708123,-6.061189828888889,-2.010688659320985,0.0,1.576999999999999,0.0
mp-1203269,Ho22Sn20,42,1,139,1101.6707320802625,9.047769749578851,26.23025552572053,5.78236895,-5.030350421190476,-0.712722199047615,0.0,0.014999999999999,0.0
mp-557285,Ho11Te16Cl1O48,76,5,2,1191.9975439424647,6.490684066200631,15.684178209769271,3.51195511,-6.964706716710526,-2.48815356607456,0.0,2.8672,1.0
mp-1197586,Ho26Zn116,142,2,194,2475.8001120667427,7.965082201840525,17.435212056808048,3.25156581,-2.18946488584507,-0.318549922112675,1.0,0.0479,0.0
mp-541349,Ho4Au10F42,56,5,2,892.7302557949142,6.375048406894599,15.941611710623468,-1.94789173,-4.5775043405357145,-2.229087597499999,1.0,1.6192000000000002,0.0
mp-9006,Ho2C1F2,5,6,164,71.62661244213267,8.806585649485262,14.325322488426533,3.66446441,-7.052530507999999,-2.602184673499997,0.0,1.1355,0.0
mp-6942,Ho4Cd2S8,14,0,227,351.359857781124,5.392705261974087,25.09713269865172,1.79630954,-5.759579168571428,-1.944035255714283,1.0,1.1172,0.0
mp-1232270,Ho4Mg2S8,14,0,227,340.6490024742933,4.703296449605548,24.332071605306663,1.988707799999999,-6.07599376785714,-2.164669879999994,1.0,1.9659,0.0
mp-754918,Ho4Mn4O14,22,0,227,240.00683178957087,7.634561179344457,10.909401444980494,3.68872111,-8.553677861363637,-2.903212720532913,0.0,1.1659,1.0
mp-1212340,Ho4Mn2Ni2O12,20,4,14,223.2150561184645,8.026713976210527,11.160752805923224,4.98780077,-8.243344822000001,-2.8608171287931032,0.0,1.8696,1.0
mp-16811,Ho8Mo4O24,36,4,15,450.6922587957389,7.690075459218735,12.519229410992743,2.72903403,-8.716983013055556,-3.191563560833332,0.0,2.1491,1.0