material_id,composition,nsites,crystal_system,space_group,volume,density,density_atomic,efermi,energy_per_atom,formation_energy_per_atom,is_gap_direct,band_gap,is_oxide
mp-1193412,K4Sn4P4S16,28,4,14,762.3232821782804,2.7624014221478213,27.22583150636716,2.42848983,-4.7869415010714285,-0.914105304913263,1.0,2.1224,0.0
mp-541379,K8Sn8S32,48,4,14,1323.4851387479437,2.871373913969228,27.572607057248828,2.32322198,-4.515116633750001,-0.899386659124999,0.0,1.4139,0.0
mp-3486,K2Sn2Sb2,6,2,186,220.7928894279649,4.205154297637906,36.798814904660816,3.64084833,-3.481261339999998,-0.391280400749997,0.0,0.2609,0.0
mp-866639,K4Sr8Cd8Sb12,32,3,62,1054.4170111475676,5.067462041203641,32.950531598361486,3.37300427,-3.100098318125,-0.747192067781249,1.0,0.184299999999999,0.0
mp-571288,K2Ta2Ag4Se8,16,3,40,513.9686033788576,4.85671167158311,32.1230377111786,0.74308721,-4.985492101875,-0.9020147852864572,0.0,1.7478,0.0
mp-1200554,K4Ta12Te8O48,72,3,57,1068.085353831089,6.399932119415574,14.83451880320957,4.84003982,-8.369914569305557,-2.681342558337964,0.0,2.9431000000000003,1.0
mp-1211251,K2Ta2Cl12,16,4,15,437.5846782302021,3.284492640014538,27.34904238938763,-1.19591475,-4.9921411593750005,-1.980946901197917,0.0,2.8634,0.0
mp-570755,K16Ta16N32,64,3,61,1174.3722115238288,5.612021393454505,18.349565805059825,2.21586046,-19.3524530165625,-1.135553518708334,1.0,2.7614,0.0
mp-3614,K1Ta1O3,5,0,221,63.7546200303669,6.981426041917768,12.75092400607338,1.68905649,-8.640023914000002,-3.071587857916669,0.0,2.0995,1.0
mp-683955,K16Ta16P16S96,144,4,14,3923.844063049359,3.002360009740592,27.248917104509434,2.33210758,-5.879262552847222,-1.074381642205686,0.0,1.7675,0.0
mp-31308,K8Ta8S40,56,4,14,1336.6488197129358,3.780327008162937,23.86872892344528,2.62902507,-5.977581191071429,-1.164710462083332,0.0,1.3034,0.0
mp-568318,K20Ta20Te60,100,4,14,3570.0780812097096,5.607998538235741,35.70078081209709,3.40054748,-5.3048983437000015,-0.8192553546166661,1.0,0.492199999999999,0.0
mp-1223468,K3Ta3W6O27,39,5,1,560.023234872055,6.50893140876888,14.359570124924488,0.92591751,-8.977074036153912,-2.558135053814169,0.0,1.4278,1.0
mp-11605,K2Tb4Cu2S8,16,3,63,371.38476829907904,4.907197027306531,23.21154801869244,3.44343996,-5.789708509375,-1.907240770697915,0.0,0.9798999999999992,0.0
mp-558923,K4Tb4Cr8O32,48,3,19,744.8736588137327,3.834476567378497,15.5182012252861,-0.69360887,-7.725562544166666,-2.337311183659722,0.0,2.7243,1.0
mp-12011,K2Tb2Ge2S8,14,4,4,370.32696933322006,3.577532074471261,26.45192638094429,1.809176809999999,-5.38495665,-1.535571011273809,1.0,2.459799999999999,0.0
mp-999129,K1Tb1S2,4,6,166,104.21158433232767,4.177235957651041,26.05289608308192,1.68157753,-15.4997236275,-2.17104956484375,0.0,2.3136,0.0
mp-2072,K4Te4,8,2,194,337.06176277484184,3.284965191031958,42.13272034685523,1.41087109,-16.73129673625,-1.013552613124998,1.0,0.670899999999999,0.0
mp-1188829,K4Te4P8,16,4,11,468.84872989344245,3.239213835586062,29.30304561834016,2.74006372,-12.89454245375,-0.5346322361755941,0.0,1.2093,0.0
mp-568904,K4Th4Sb8Se24,40,4,14,1137.9071797850115,5.769553119988807,28.447679494625287,4.12134313,-4.97103262,-1.193162688131249,0.0,0.6898000000000001,0.0
mp-12365,K2Th2Cu2S6,12,3,63,305.8895164931984,4.678085717980999,25.490793041099867,3.08515447,-5.895206235833334,-1.718620678291665,0.0,2.0422,0.0
mp-541238,K2Ti4P6O24,36,6,167,486.5232026853041,2.865249871620221,13.514533407925114,0.78649835,-8.173587463888888,-3.032237108769179,0.0,2.5455,1.0
mp-1203502,K4Ti16Cl44,64,3,62,1537.5289711368573,2.680785532488186,24.023890174013395,3.18555016,-5.3480276884375,-2.032570901598959,0.0,0.0057,0.0
mp-560977,K2Ti2P2S10,16,4,12,419.53952158192175,2.202740490524101,26.22122009887011,1.48978553,-5.6309957475,-1.239229109715773,0.0,1.2217,0.0
mp-571544,K2Ti2P2Se10,16,4,12,461.3669326369454,3.690872419297693,28.83543328980909,1.18927846,-5.042976540625,-1.052739958993117,0.0,0.889899999999999,0.0
mp-1211257,K1Tl1S2O8,12,6,155,186.5361158003571,3.877759038634534,15.544676316696425,0.35930242,-6.111182435833332,-1.830911684631944,0.0,2.0234,1.0
mp-560959,K1Tl2Mo1F6,10,0,225,198.9419110646649,5.490521426644849,19.894191106466494,1.05091873,-5.355332116,-2.535024284391668,1.0,2.4401,0.0
mp-28048,K4Tl4Br16,24,3,52,885.7561371239426,4.222586890088284,36.90650571349761,-1.39001839,-2.9841588012500013,-1.3090541380138911,1.0,1.8089,0.0
mp-27385,K2Tl2Cl8,12,1,88,369.23865902390094,3.465482604677857,30.769888251991745,-1.24755175,-3.360183770000001,-1.544014930097224,1.0,2.3241,0.0
mp-27209,K6Tl6F24,36,6,144,574.364341648875,5.541789765100618,15.954565045802084,-1.7044472700000002,-4.35378527694444,-2.494076720374996,0.0,2.3226,0.0
mp-27716,K2Tl2O2,6,4,12,140.6154265237279,6.128464681188116,23.43590442062132,2.3170354,-4.008381916666669,-1.191447635194449,0.0,1.1638,1.0
mp-8175,K1Tl1O2,4,6,166,63.02965927008807,7.257630321661667,15.757414817522015,2.57300539,-4.734007612500001,-1.384316650145836,0.0,0.8820000000000001,1.0
mp-1211225,K2Tl2Se4,8,1,140,236.0551799652942,5.647349389187259,29.50689749566177,1.6136323300000002,-3.495964391250002,-0.872298192567711,0.0,1.3576,0.0
mp-1211338,K2Tm2C4O12,20,4,15,260.9663889534406,4.174793219539306,13.048319447672032,0.47049655,-7.954389471499999,-2.578492649725,1.0,9.9999999999989e-05,1.0
mp-865972,K2Tm4Cu6Se10,22,3,63,486.1593487548519,6.5744313650793895,22.09815221612963,3.75299745,-4.942780673636367,-1.317912484451709,0.0,1.048999999999999,0.0
mp-504555,K4U8F36,48,3,62,696.2968601788739,6.545284026212316,14.506184587059872,3.77984414,-7.260365879166668,-3.8487941193541673,1.0,0.1714,0.0
mp-606691,K4U8P12O56,80,3,60,1273.83947860555,4.338641135796904,15.922993482569373,0.60437091,-8.548598187249999,-3.086994967808926,1.0,2.346199999999999,1.0
mp-542558,K4U4Cr4O24,36,4,14,590.9351512111647,4.778378033459759,16.41486531142124,0.98344439,-8.513813492499999,-2.7623031333055543,0.0,1.6413,1.0
mp-554888,K8U8I24O88,128,3,61,2248.660533154936,4.926004418559247,17.567660415272933,1.52593113,-6.150938106484375,-1.687038816937499,0.0,2.2768,1.0
mp-1199439,K8U8N24O88,128,3,61,2008.6087879751856,3.274706343380665,15.69225615605614,1.13215394,-7.441821553125,-1.700247551703124,1.0,2.4051,1.0
mp-554887,K8U8Nb8O48,72,3,62,1090.259026173634,5.678364396161121,15.142486474633804,2.51905889,-9.026484232777776,-3.225167476916665,1.0,2.0161,1.0
mp-4126,K1U1O3,5,0,221,79.44393397949031,6.795779335257008,15.888786795898062,4.86787333,-8.78844244,-3.335109890449998,0.0,0.4454,1.0
mp-557505,K8U8P24O88,128,4,14,1987.6963307218423,3.649345772969465,15.528877583764396,0.32786373,-8.108140820234375,-2.914592609995535,0.0,2.323,1.0
mp-560631,K4U4Si8O28,44,1,127,716.6031806690536,4.127406183364171,16.286435924296672,3.59836809,-8.601186001363637,-3.33671847156818,0.0,0.5523,1.0
mp-541148,K4U4V4O24,36,4,14,601.8578971049915,4.680019554942789,16.718274919583095,0.66548795,-8.67623936,-2.987966934138888,0.0,1.9806,1.0
mp-6376,K2V2Cu4S8,16,3,40,362.5696333713816,3.163732008388126,22.660602085711343,2.72025673,-5.438841109375,-1.067950184031248,0.0,1.076,0.0
mp-559744,K4V4I8O32,48,4,14,742.3868329676704,4.221601251069533,15.466392353493134,1.04526669,-5.874440414166664,-1.470524658937495,0.0,2.7395,1.0
mp-545469,K4V4S8O32,48,6,148,679.6207884709785,2.757690839806894,14.15876642647872,0.77226099,-7.022080932916666,-2.182440685604167,0.0,2.139199999999999,1.0
mp-557947,K8V16P8O64,96,3,33,1388.0559531068002,2.870657350508589,14.458916178195835,-0.19469557,-7.852078461145833,-2.493883175470237,0.0,2.239,1.0
mp-19496,K4V8Sb4O32,48,3,62,727.4285949881997,3.567818078458003,15.154762395587497,1.04377766,-7.489685060833334,-2.2386957989375,0.0,2.8099,1.0
mp-1203567,K4V8Se4O28,44,3,62,679.6201627387367,3.244132840218892,15.445912789516742,0.26990496,-7.345515543863637,-2.124531873372159,0.0,2.1253,1.0
mp-1223484,K2V6Pb8O24,40,2,173,698.8672022668175,5.762930708276202,17.471680056670436,4.42816634,-7.259701230499999,-2.129240816862498,0.0,2.9891,1.0
mp-541520,K2V6Se4O24,36,2,173,529.550019678566,3.3981272704731,14.709722768849057,0.42406488,-7.239549306388889,-1.975635809274305,0.0,2.3366,1.0
mp-560167,K2V6Cd8O24,40,4,9,590.8484994038473,4.685323840328116,14.771212485096182,0.22475479,-6.6102095835,-2.0302765458625,0.0,2.3764,1.0
mp-1192668,K2V6Ge4O18,30,2,194,428.654861190792,3.728160596273725,14.288495373026398,2.37731489,-7.856056972,-2.378670792816667,0.0,1.632099999999999,1.0
mp-19172,K2V6O16,24,4,11,318.6346024974923,3.33445478265481,13.276441770728846,-0.15807031,-8.0257476525,-2.361849654770832,0.0,2.0933,1.0
mp-557659,K2V8P14O48,72,5,2,922.7453566209148,3.036462293039392,12.815907730846035,2.03883844,-8.088443241944445,-2.696043997493055,0.0,1.923499999999999,1.0
mp-1205604,K2V2Cl6,10,2,194,255.0933518245801,2.556929670653495,25.509335182458013,3.3818892,-9.548923211,-1.83589193925,0.0,0.3342,0.0
mp-557257,K1V1F3,5,0,221,70.41227003340603,3.467540209722954,14.082454006681209,2.32983132,-6.230437906000001,-3.03907132245,0.0,2.075899999999999,0.0
mp-560997,K8V8F32,48,3,62,713.4845518955307,3.091363002412347,14.864261497823556,-0.27233251,-6.202982164791673,-3.224534616000007,1.0,1.979299999999999,0.0
mp-546266,Dy1Bi2I1O4,8,1,123,151.13454136559216,8.475085632881713,18.89181767069902,4.25411149,-6.540042978750001,-2.325755380833334,0.0,1.3667999999999991,1.0
mp-1191253,Dy4Cr4B16,24,3,55,233.7617459004605,7.323482350472083,9.74007274585252,6.20928539,-7.49274068,-0.661242333055554,0.0,0.3833,0.0
mp-19381,Dy4Cr4O12,20,3,62,218.53793938887344,7.978148620394884,10.926896969443671,3.6813878,-9.043801588000004,-3.220740385333334,0.0,2.4922,1.0
mp-18754,Dy2Cr2O8,12,1,141,157.67213739385855,5.865965620758981,13.139344782821546,1.85869209,-8.456233460833333,-2.779022291111109,0.0,0.297999999999999,1.0
mp-1105344,Dy2Cr2Te2O12,18,6,163,219.8343302821885,6.61834491547021,12.21301834901047,3.26769935,-7.77626777,-2.542657223148146,0.0,2.7169,1.0
mp-1225327,Dy2Cu2Pb2S6,12,3,36,262.76939111118264,6.691475443483314,21.89744925926522,4.82993941,-5.4896065975,-1.348721935694442,0.0,1.5979,0.0
mp-601257,Dy4Cu4Pb4Se12,24,3,62,587.2901185410161,7.579016689800995,24.47042160587567,4.37439815,-5.057985802916667,-1.2383251860329851,0.0,1.208699999999999,0.0
mp-555044,Dy4Cu4S8,16,3,62,329.29028160459023,5.853177103699919,20.58064260028689,4.11671613,-16.317736603125,-1.5930872557812492,0.0,1.6186999999999991,0.0
mp-675349,Dy1Cu1Se2,4,6,156,91.85216894378836,6.941485983159829,22.963042235947093,3.59177827,-19.2823356475,-1.4194057257812491,0.0,1.066799999999999,0.0
mp-1191571,Dy6H18,24,6,165,227.02781447973263,7.264099428329837,9.45949226998886,2.58280809,-11.310122007916666,-0.723336900729165,0.0,0.004799999999999,0.0
mp-1207186,Dy1H1Se1,3,2,187,49.543032745323046,8.126823580577707,16.514344248441017,3.97079308,-18.252086336666668,-1.6692610509375,0.0,1.487699999999999,0.0
mp-865005,Dy2I6,8,2,194,420.1195251213786,4.294145046200338,52.51494064017233,-0.55330679,-3.949390122499998,-1.651786779166664,0.0,2.1725,0.0
mp-18601,Dy4Mn8O20,32,3,55,348.25130004119944,6.7207706836337415,10.882853126287484,3.00109596,-8.612591949375,-2.6523155571910912,0.0,1.0799,1.0
mp-1212984,Dy4Mn4Fe4O20,32,3,55,366.4594223572795,6.4032772021429,11.451856948664984,3.09779355,-8.39967307875,-2.525895946824713,1.0,1.146,1.0
mp-1192462,Dy4Mo4Br4O16,28,5,2,508.8274646548096,5.252105999204226,18.172409451957485,1.42505731,-7.863388028928571,-2.592985715595237,0.0,1.8414,1.0
mp-555683,Dy2Mo2Cl2O8,14,4,12,249.98141379884896,4.754684069009376,17.855815271346355,0.4796233,-7.987490366428572,-2.686860015238095,0.0,2.7283,1.0
mp-1410,Dy1N1,2,0,225,29.21522839893118,10.032311466624336,14.60761419946559,3.9806888,-22.575982325,-2.020705376875,0.0,0.043099999999999,0.0
mp-30452,Dy1Ni1Bi1,3,0,216,66.57708996861048,10.729222329551504,22.19236332287016,6.06016806,-5.431002686666669,-0.668153847222222,0.0,0.2084,0.0
mp-4510,Dy1Ni1Sb1,3,0,216,62.846580011144894,9.0615514578885,20.94886000371497,6.56310384,-5.8065887966666665,-0.964084313888886,0.0,0.3123,0.0
mp-9850,Dy2P10,12,4,11,243.33387569866963,4.331524379926144,20.277822974889137,5.54363751,-13.4690891475,-0.6370583499801581,0.0,0.0937,0.0
mp-1192185,Dy8P8S8,24,3,62,476.2248634560693,6.291413222159875,19.842702644002888,5.36754458,-18.131716862083334,-1.792090655679563,0.0,0.3391,0.0
mp-5241,Dy8P8S32,48,1,142,1092.4138212515873,3.912447612448479,22.75862127607473,3.03366431,-13.398113757083337,-1.210801112787699,0.0,2.159699999999999,0.0
mp-1225510,Dy1Pa1O4,6,1,123,76.90579637600867,9.87899812002285,12.817632729334775,5.32101013,-9.842012546666666,-4.182926425277777,0.0,2.400399999999999,1.0
mp-17160,Dy4Pt4F28,36,4,14,500.2810984897964,6.513260957221938,13.896697180272122,-1.1273146,-14.522984155277776,-2.817237958055554,0.0,2.3154,0.0
mp-1212884,Dy4Rh4O12,20,3,62,227.48179478810232,9.15095799998858,11.374089739405116,4.4959901,-7.9469165409999984,-2.581603258333331,1.0,0.8883000000000001,1.0
mp-28928,Dy2S2Br2,6,3,59,186.7979741349634,4.879779871074399,31.13299568916057,0.02708018,-5.83137987833332,-2.366819334722207,1.0,2.8776,0.0
mp-561307,Dy4S4Cl4,12,4,14,293.7268046677385,5.201484766816049,24.477233722311546,2.42823392,-6.071664556666659,-2.536571924722212,0.0,2.7618,0.0
mp-28929,Dy2S2I2,6,3,59,214.96943499961492,4.9664047696376254,35.828239166602486,0.28141839,-5.534424936666667,-2.107509033055554,1.0,2.7811,0.0
mp-1213234,Dy4Sb4O16,24,5,2,298.90932435244025,7.738739516315592,12.454555181351678,3.57693145,-7.623371441249998,-2.866834643194442,0.0,2.3553,1.0
mp-1225491,Dy1Sb1Pd1,3,0,216,70.65192488515665,9.182190061966486,23.55064162838555,5.81562675,-5.763261726666665,-1.120842200555551,0.0,0.229899999999999,0.0
mp-16327,Dy1Sb1Pt1,3,0,216,70.9188515313655,11.223665092606224,23.639617177121835,6.21931891,-6.153699233333332,-1.214195870555552,1.0,0.049299999999999,0.0
mp-1184176,Dy4Sc4S12,20,3,62,425.3828748237168,4.741368135176336,21.26914374118584,3.916761799999999,-15.772778999,-2.275721433687499,0.0,1.773699999999999,0.0
mp-769393,Dy8Se8O24,40,4,14,618.5495841025352,6.216564189531994,15.46373960256338,3.14119697,-7.1167769105,-2.525142906302083,0.0,1.8154,1.0
mp-1212803,Dy4Te4As4,12,3,62,302.867573617052,8.005249551333444,25.23896446808767,5.69435439,-25.393350440000003,-1.357830932500003,0.0,0.3109,0.0
mp-1105239,Dy2Tl2P4Se12,20,4,4,548.7359681038884,5.462690297432552,27.436798405194416,2.80389962,-4.787509674000001,-0.9078833178348212,0.0,1.5375,0.0
mp-1212931,Dy2Tl2W4O16,24,4,15,332.95372487398,8.603670597288037,13.873071869749166,5.21343356,-8.546968232916667,-2.506151887499999,0.0,2.917099999999999,1.0
mp-31166,Dy1Tl1S2,4,6,166,104.48691404445152,6.849799608108835,26.12172851111288,3.9211413,-5.54828831999999,-1.73164662499999,0.0,1.5281999999999991,0.0
mp-568062,Dy1Tl1Se2,4,6,166,116.09695238464536,7.506281293615214,29.024238096161337,3.54358911,-30.057667085,-1.611610018281247,0.0,1.233199999999999,0.0
mp-1007908,Dy1Tl1Te2,4,6,166,139.2378498348835,7.418913919989665,34.80946245872087,4.5661354,-4.577374822499991,-1.258259964583324,0.0,0.7156,0.0
mp-22789,Dy4V4O12,20,3,62,224.4936902037986,7.735287972077501,11.22468451018993,4.68411545,-9.005861853999999,-3.296628931333332,0.0,1.6567999999999992,1.0
mp-18784,Dy2V2O8,12,1,141,159.62467366853392,5.77227133580865,13.302056139044494,0.54534765,-8.791597553333334,-3.209243283611112,0.0,2.9764,1.0
mp-549728,Dy2Zn2P2O2,8,6,166,133.39878131915347,6.843429365676406,16.674847664894184,4.72475094,-6.11429923625,-2.053910819077379,0.0,1.2613,1.0
mp-1104636,Er2Al6C6,14,2,194,171.95506285727595,5.489626212409525,12.282504489805424,6.79747373,-6.526117707857144,-0.313197311071429,0.0,0.026099999999999,0.0
mp-1225120,Er2Cu6S6,14,6,148,240.10117694727785,6.28099799774077,17.1500840676627,5.43863155,-13.939927005714283,-1.001238375252975,0.0,1.445599999999999,0.0
mp-2717767,Er4Cu12Te12,28,3,58,666.0707169787497,7.386340661198353,23.788239892098204,5.75124124,-21.01549071178572,-0.627276983690478,1.0,0.368399999999999,0.0
mp-1212805,Er2Zn6P6,14,2,194,266.9958896101839,5.677107087980965,19.071134972155992,4.01135427,-13.246816097142856,-0.723462966037414,0.0,0.3703,0.0
mp-541347,Er4Au10F42,56,5,2,884.7654900914579,6.449919346262614,15.799383751633176,-1.98349767,-4.5744188133928585,-2.228142117142857,0.0,1.5935,0.0
mp-3041,Er4Cd2S8,14,0,227,346.86744660515416,5.507140058985257,24.77624618608244,1.88588945,-5.759066599285715,-1.952082873571427,1.0,1.1479,0.0
mp-1225159,Er4Cr2Sb2O14,22,3,74,268.3244588981255,7.677141360990336,12.19656631355116,4.51261055,-8.291534973636363,-3.059424667727272,0.0,2.1271,1.0
mp-1232129,Er4Mg2S8,14,0,227,336.701524941324,4.804375925043277,24.05010892438029,1.98707065,-6.076131674285713,-2.173367973571426,1.0,2.0129,0.0
mp-19256,Er4Mn4O14,22,0,227,237.5485573616032,7.778680357968908,10.797661698254691,2.53761924,-8.560741063636364,-2.915723314623823,0.0,1.1678,1.0
mp-31122,Er8Mo4O24,36,4,15,444.5666525188723,7.865620086709966,12.349073681079783,2.70211932,-8.718492294444442,-3.199730765555552,0.0,1.8785,1.0
mp-1225956,Er16Pb8S32,56,3,36,1378.7313672157077,6.455352618888962,24.620202985994776,5.29709873,-6.117178780000001,-1.916961214285712,0.0,2.1115,0.0
mp-756440,Er4Pt4O14,22,0,227,259.562032242043,10.705285385634816,11.798274192820138,3.78936715,-7.561057952272725,-2.478018743636361,0.0,1.4127,1.0
mp-2234,Er12S18,30,4,11,691.5920547737513,6.204950661786847,23.053068492458376,3.24441903,-20.756785843666663,-2.365612327687499,1.0,1.4691,0.0
mp-209,Er8Se12,20,3,70,559.6653396140929,6.781400486450379,27.983266980704645,1.60386282,-24.3309633985,-2.173853193270832,0.0,0.7923,0.0
mp-13975,Er2Se1O2,5,6,164,83.18486210013481,8.892623140656212,16.63697242002696,3.61363396,-8.013100429999998,-3.507646208468746,0.0,2.1741,1.0
mp-3688,Er4Sn4O14,22,0,227,276.1501568937193,8.225226497374631,12.552279858805424,4.19991874,-7.739150838636362,-3.030940987272725,1.0,2.6825,1.0
mp-14643,Er8Te12,20,3,70,685.6202869916305,6.94923755772658,34.281014349581525,3.5167289,-30.465381566,-1.644872913333336,1.0,0.0521,0.0
mp-1178355,Er2Te1O2,5,1,139,92.37788810315192,8.881998351674628,18.475577620630386,5.05758415,-7.771790744,-3.336857639333332,0.0,0.603499999999999,1.0
mp-1225541,Er2Te1S2,5,3,71,145.76339722326776,5.995026044718351,29.15267944465355,2.539002769999999,-24.00487865,-2.137260088458333,0.0,1.77,0.0
mp-1192137,Er4Tl2Cu6S10,22,3,63,440.5475411348594,6.708263223152692,20.0248882334027,4.97716622,-5.367956743181818,-1.322836053712121,0.0,1.428799999999999,0.0
mp-1105955,Er6Cu6Sb8,20,0,220,427.5057322895054,9.162595758928408,21.375286614475268,6.91985528,-24.5020342795,-0.787838637499999,0.0,0.333899999999999,0.0
mp-555081,Er6Cu2Ge2S14,24,2,173,484.8613138377833,5.9071686681035525,20.20255474324097,4.69688398,-5.987441995,-1.704616334374998,1.0,1.7469,0.0
mp-558980,Er6Cu2Si2S14,24,2,173,469.3960673502417,5.786560166823306,19.55816947292673,4.63342126,-16.53285498625,-1.729366680390626,0.0,1.875999999999999,0.0
mp-1198546,Er24Ga16,40,1,140,960.2269108822682,8.871035209160073,24.005672772056705,3.19025925,-25.57414098125,-0.6417695012499991,0.0,0.002499999999999,0.0
mp-7290,Er6Ga2S12,20,3,36,443.56334475061095,5.719450006845168,22.17816723753055,3.10392999,-18.1228788345,-1.979971240187498,0.0,2.106499999999999,0.0
mp-1213004,Er6Ru2I6,14,4,11,443.2500769719736,7.36938613219635,31.6607197837124,4.6995629,-5.093277087857144,-1.157620399999999,0.0,0.0495,0.0
mp-1189719,Er3Tl2Cu5S8,18,4,8,363.1453691866651,6.789451244166353,20.174742732592502,5.14518807,-5.253112211666666,-1.250389403148147,0.0,1.2826,0.0
mp-1212833,Er8C14,22,4,14,305.18156924331214,8.19558057868982,13.871889511059642,4.02005353,-7.834665401818184,-0.300889612045456,0.0,0.3912,0.0
mp-1212949,Er16Cd4Pt4,24,0,216,612.8294262835834,10.584138461364242,25.53455942848264,3.51258776,-4.82850305416667,-0.6114999291666671,0.0,0.0158,0.0
mp-1212947,Er16Mg4Ni4,24,0,216,604.4140704501573,8.264417138383418,25.183919602089887,3.3664215,-4.484769968333332,-0.204522979166663,0.0,0.022299999999999,0.0