material_id,composition,nsites,crystal_system,space_group,volume,density,density_atomic,efermi,energy_per_atom,formation_energy_per_atom,is_gap_direct,band_gap,is_oxide
mp-1198923,Cd32As16H16O80,144,4,14,1976.274097440928,5.118705556397131,13.724125676673111,0.18925356,-5.444320329652778,-1.585974287847221,0.0,1.5943,1.0
mp-541677,Cd8As4O16F4,32,4,15,479.7225171830051,5.299347357556956,14.99132866196891,0.02959769,-5.3799111953125,-1.842931281874999,0.0,1.705099999999999,1.0
mp-556653,Cd4Bi2As2O12,20,3,36,297.86218526688884,6.742459420756851,14.893109263344442,2.16115107,-5.6656655485,-1.64887122325,0.0,2.0584,1.0
mp-13361,Cd2Cu1P2O8,13,5,2,164.34859169790363,4.832737749500663,12.642199361377202,1.96700919,-6.481855057692319,-2.140788739175835,0.0,0.698099999999999,1.0
mp-6356,Cd4Ga2Ag2S8,16,3,31,387.6232596489914,4.546701253147711,24.22645372806196,1.57263982,-3.85411874625,-0.811057202395832,1.0,1.0437,0.0
mp-3917,Cd8Ge4O16,28,3,62,388.0561525497079,6.186916845450345,13.85914830534671,1.03900224,-5.523849196071429,-1.761721731071428,1.0,1.0923,1.0
mp-558011,Cd8H8S4O24,44,4,14,517.5872399815738,4.554394495267634,11.763346363217586,0.8489411800000001,-5.496780259090909,-1.629827635909091,0.0,2.9722,1.0
mp-24015,Cd8H12Cl4O12,36,3,62,528.5052826794806,3.912323149584525,14.68070229665224,-0.82131133,-4.572461986666666,-1.372690263194443,1.0,2.0958,1.0
mp-1227201,Cd4Hg26As16Cl24,70,4,14,1958.9838169991583,6.539307384212235,27.985483099987977,0.46049289,-2.526919113857142,-0.6557976645000021,1.0,1.4033,0.0
mp-27686,Cd4P4O14,22,5,2,268.18973398781293,4.9380368820343925,12.190442453991496,1.36574295,-6.64840278181818,-2.340521466753244,0.0,2.713899999999999,1.0
mp-557910,Cd8P4O16F4,32,4,15,442.1119828298944,5.089904670359767,13.8159994634342,0.63490891,-5.94970461625,-2.319555828705356,0.0,2.3713,1.0
mp-1191189,Cd4Sb4O14,22,0,227,273.4321458195503,7.048721984288322,12.428733900888652,3.69450589,-5.858477404545456,-1.784500141363636,0.0,0.3778,1.0
mp-4530,Cd4Si2O8,14,3,70,176.43791618028882,5.965081773206399,12.60270829859206,1.67866465,-6.092007931428567,-2.215267584285709,0.0,1.462999999999999,1.0
mp-5966,Cd4Sn2O8,14,3,55,179.31692173747723,7.547740782507946,12.808351552676944,3.06121705,-5.381327748571427,-1.706836854999997,0.0,0.399799999999999,1.0
mp-30940,Cd8Te8O28,44,5,2,595.8598742851009,6.599327979263909,13.542269870115929,3.1931293,-5.405449185454546,-1.5106892580303022,0.0,1.768799999999999,1.0
mp-13602,Cd12As8O32,52,4,14,739.1491558086035,5.527166366474618,14.214406842473144,0.24721556,-5.640677626346153,-1.655757343653845,0.0,1.6354000000000002,1.0
mp-5560,Cd6B4O12,22,3,58,261.2127321759273,5.783014579006111,11.873306007996694,1.44273313,-6.261267854545454,-2.086124205303029,1.0,1.4576,1.0
mp-29297,Cd6Cl4O4,14,4,14,261.74068903133235,5.584657198635915,18.695763502238027,0.54909481,-3.773199259285716,-1.4199080907142871,0.0,1.1749,1.0
mp-1227011,Cd3Cu2P10,15,6,160,289.1174018481895,4.445810637090848,19.274493456545965,5.70114981,-11.640240376,-0.171619163317461,0.0,1.2626,0.0
mp-680761,Cd36P24O96,156,4,14,2058.0207278891817,5.104297771945142,13.192440563392193,0.89440782,-6.342923346474359,-2.2433336802655672,0.0,2.5482,1.0
mp-27899,Cd12As4Cl12,28,3,62,769.573091859463,4.475271282071494,27.48475328069511,0.03443953,-2.861407067857143,-0.990581138928571,0.0,1.4485,0.0
mp-676464,Cd3As1I3,7,4,6,267.6561488639194,4.918954079144932,38.236592694845626,1.06158607,-2.318818432857142,-0.58707686892857,1.0,0.8399000000000001,0.0
mp-1196945,Cd6B8Pb6O24,44,2,176,634.8703622252331,6.246313166037541,14.428871868755296,2.01346044,-6.683908377045455,-2.133405153257575,0.0,2.654899999999999,1.0
mp-1195436,Cd12B4P4O28,48,3,33,626.4913412986737,5.205800292411143,13.051902943722368,0.93687451,-6.312359645,-2.178141069900793,0.0,2.0403,1.0
mp-2441,Cd24P16,40,1,137,956.9129380814928,5.541610554931454,23.92282345203732,2.35335285,-15.78700092075,-0.123177781940475,0.0,0.0018,0.0
mp-29415,Cd6P2Cl6,14,6,164,367.4836528158333,4.288816557871359,26.24883234398809,0.1652229,-13.42216068142857,-0.8829669564965981,0.0,1.8279,0.0
mp-1226891,Cd3P1I3,7,4,6,257.0085588153337,4.838792953445389,36.71550840219053,1.11257574,-2.418620295714285,-0.580400018520406,1.0,1.2987,0.0
mp-13820,Cd6Si2O10,18,1,129,234.4004272730585,6.309406457276579,13.02224595961436,1.55319435,-5.699906795555555,-2.028223059444443,1.0,0.9679,1.0
mp-14243,Cd6Te2O12,20,4,14,252.33278386347047,7.38135658901718,12.616639193173524,2.58606728,-5.0754776295,-1.504367380166665,1.0,0.5061,1.0
mp-1203526,Cd32As16Br24,72,0,205,2075.266435099896,5.371929243166843,28.82314493194299,0.73275444,-2.677127601944445,-0.6670025541666671,1.0,0.9704,0.0
mp-1214272,Cd32As16Cl24,72,0,205,1968.155484426376,4.764197541853314,27.335492839255213,0.84229236,-2.872692772222221,-0.792035636111109,1.0,0.8937,0.0
mp-1226936,Cd4Mo1W3O16,24,4,5,316.40840333906385,7.101158149677651,13.183683472460991,1.13358112,-7.476234818750001,-1.94592408375,0.0,2.7918000000000003,1.0
mp-28855,Cd8O2F12,22,1,137,307.09123955443454,6.268525292357282,13.958692707019752,-0.97171713,-4.126121581363643,-2.283292852727279,0.0,1.8997,1.0
mp-28914,Cd32P16Br24,72,0,205,1951.3556330057995,5.114675485593733,27.102161569524995,0.94849766,-2.837049788333333,-0.6612911865873,1.0,1.3986,0.0
mp-29746,Cd32P16Cl24,72,0,205,1836.0709030619528,4.470986320263327,25.500984764749354,1.12261535,-13.721027008333332,-0.734202555383597,1.0,1.3826,0.0
mp-8921,Cd4P6S1N12,23,0,217,313.4283723801175,4.427166322783166,13.627320538265977,3.3579202,-6.709734581739131,-0.599709606972049,0.0,2.9902,0.0
mp-29044,Cd32Sb16I24,72,0,205,2566.8585387344656,5.557658484517503,35.650813037978686,1.8599519,-2.345136459166667,-0.492905227499999,1.0,1.130599999999999,0.0
mp-556462,Cd10Mo4P16O56,86,4,15,1076.2379148741477,4.47354107751095,12.514394359001717,2.10047096,-7.239615730697679,-2.394079742026582,0.0,2.5954,1.0
mp-23476,Cd28P16Cl24,68,0,205,1729.4542476038637,4.31488515692178,25.433150700056814,1.25517996,-13.344636293235297,-0.7765273248179261,1.0,1.8003999999999991,0.0
mp-1197203,Cd4Ag8Ge4S16,32,3,33,730.0727936502728,4.813239903877238,22.814774801571023,2.0469062,-4.063761334687499,-0.585967375729164,1.0,0.8323,0.0
mp-1226771,Cd1Ag2Sn3S8,14,6,166,326.0345050436003,4.791611968330747,23.28817893168573,4.34099556,-4.332420378571428,-0.633743403452379,0.0,0.643199999999999,0.0
mp-471,Cd2As4,6,1,98,152.66478634811008,5.705092246838502,25.444131058018343,2.296602699999999,-3.4946494083333333,-0.061230989999999,0.0,0.133199999999999,0.0
mp-557926,Cd4As8Xe16F80,108,3,19,2137.4761570803635,3.627649880585538,19.791445898892253,-3.23943857,-3.540325491111111,-1.735806993518518,0.0,2.415699999999999,0.0
mp-997036,Cd2Au2O4,8,5,2,116.260355946894,9.751712740282583,14.53254449336175,1.76975033,-4.4215644075,-0.8891108574999991,0.0,0.8955000000000001,1.0
mp-559282,Cd4B8Xe4F40,56,4,14,855.3954614171352,3.535487991943889,15.274918953877414,-0.57728493,-4.911762945714286,-2.5193706848809523,0.0,2.8874,0.0
mp-1226996,Cd1Bi12Cl14O12,39,3,65,801.0254164139019,6.858597731087997,20.5391132413821,3.79274153,-5.091335415384615,-1.6837571289743591,1.0,1.5446,1.0
mp-1196929,Cd4Bi4B4F40,52,4,14,759.5845717177627,4.566237928838053,14.607395609956976,-3.02273254,-4.914845770769231,-2.55577192301282,0.0,2.0295,0.0
mp-550553,Cd2Bi2Cl2O4,10,4,11,202.587553572604,6.374422445951032,20.2587553572604,1.64493619,-4.916808127,-1.597906265,0.0,2.8427,1.0
mp-755478,Cd2Bi2O6,10,6,146,145.26917584693376,8.444817808315447,14.526917584693376,3.24372955,-5.373882152000002,-1.435096649000002,0.0,0.766999999999999,1.0
mp-568722,Cd2Br4,6,6,166,184.9834976481843,4.887249834906797,30.830582941364053,-1.01705545,-2.6377710600000013,-1.226469973333333,0.0,2.8551,0.0
mp-10969,Cd1C1N2,4,6,166,53.24385900623181,4.754058841630004,13.310964751557952,1.5626783400000002,-6.7871620225,-0.070854229375,0.0,2.3076,0.0
mp-4385,Cd2C2O6,10,6,167,115.52902720431366,4.956502910786648,11.552902720431366,0.99032799,-6.761938697,-1.7554269574999992,0.0,2.6226000000000003,1.0
mp-1213911,Cd2Co2P8O24,36,4,15,472.272534363864,3.426275224709476,13.118681510107333,0.89098124,-7.367098074166667,-2.415384014642857,1.0,2.5498000000000003,1.0
mp-13982,Cd2Cu4Ge2S8,16,3,31,316.66649334072304,4.618779706263253,19.79165583379519,4.16288452,-4.44150525125,-0.649644044374999,1.0,0.388499999999999,0.0
mp-6449,Cd2Cu4Si2S8,16,3,31,312.7067770102915,4.2040783700915885,19.54417356314321,4.37725876,-4.647483654375,-0.7553361756249981,1.0,0.9802999999999992,0.0
mp-1189879,Cd2Cu4Si2Se8,16,3,31,368.1987508175362,5.262406864046843,23.01242192609601,3.33230674,-4.180721849375,-0.6097984155468741,1.0,0.339999999999999,0.0
mp-1087540,Cd1Cu2Si1Te4,8,1,121,229.1038893772113,5.638840532682968,28.63798617215141,4.5212870800000005,-3.77639696375,-0.381776322083332,1.0,0.299999999999999,0.0
mp-9075,Cd2Cu2F8,12,1,140,146.69501089631285,5.703995423592497,12.224584241359404,0.49245641,-9.392662903333331,-2.150013655,0.0,0.7327,0.0
mp-241,Cd1F2,3,0,225,39.38870067731385,6.340854969929461,13.12956689243795,-1.66524454,-11.243246936666669,-2.457565739999999,0.0,2.8977,0.0
mp-555027,Cd4Ge4Bi8O24,40,3,60,625.5979680523068,7.42157413066723,15.639949201307669,3.02491816,-6.085758374,-1.7806711045,1.0,1.9126999999999992,1.0
mp-4953,Cd2Ge2As4,8,1,122,202.405058230684,5.4949704037925065,25.300632278835497,2.68030662,-3.807197972499999,-0.076377194999999,1.0,0.0085,0.0
mp-1245535,Cd4Ge4N8,16,3,33,211.38580915750555,6.694900879331364,13.211613072344097,3.46713447,-13.178112868125,-0.119496214999999,1.0,0.9590999999999992,0.0
mp-3668,Cd2Ge2P4,8,1,122,179.81329023906633,4.561961999018336,22.47666127988329,3.01166382,-13.14611110625,-0.150831632738094,1.0,0.6455000000000001,0.0
mp-721583,Cd4H8Se4O20,36,4,14,447.2298061372405,4.060235759683505,12.423050170478904,-0.46643083,-5.303503476944445,-1.30505241359375,1.0,2.5187,1.0
mp-644222,Cd2H2Cl2O2,8,2,186,125.87677625018512,4.3498937482884354,15.73459703127314,-0.09261287,-4.19659908875,-1.408678980312499,1.0,2.4655,1.0
mp-1226809,Cd2H2O2F2,8,3,31,96.36667662612165,5.114875989286433,12.045834578265206,-0.79394882,-4.5952614725,-1.7910139703124992,0.0,1.8626,1.0
mp-560904,Cd2Hg4S2O12,20,5,2,313.64653541813226,6.794201478790207,15.682326770906611,0.54998252,-4.9212407655,-1.380692779250001,0.0,1.3352,1.0
mp-556369,Cd2Hg4Se2O12,20,5,2,330.4428934956088,6.920166112884197,16.52214467478044,0.27632463,-4.5467798705,-1.070476693234376,0.0,0.9505999999999992,1.0
mp-570838,Cd2Hg8As4I8,22,4,4,817.1130597903378,6.390187402638422,37.14150271774263,0.811553899999999,-2.009375123636363,-0.40619386318182,1.0,0.4617,0.0
mp-567910,Cd4Hg24As16Br24,68,0,205,2049.636478895984,6.789362577113343,30.141712924940943,0.47502608,-2.397100383529412,-0.554734986176473,1.0,1.3456,0.0
mp-1227680,Cd4Hg24Sb16I24,68,4,15,2661.3344601188664,6.400271798990665,39.13727147233627,1.53148267,-2.083994053970588,-0.408810344264708,0.0,0.8608999999999991,0.0
mp-569454,Cd4Hg4As4Br4,16,3,51,542.9269974966863,5.723379749222309,33.932937343542896,-0.01686502,-2.384810735,-0.490622911250001,0.0,1.0028,0.0
mp-2695851,Cd1Hg1O2,4,6,166,69.72553757563249,8.216295862154777,17.43138439390812,0.65702552,-3.819178855,-1.027777795625001,0.0,0.3315,1.0
mp-570437,Cd3I6,9,6,156,341.6469020071765,5.339921249967611,37.96076688968628,1.08985083,-2.16309536511111,-0.827083558444443,0.0,2.3382,0.0
mp-19803,Cd2In4O8,14,0,227,196.074285845459,6.877525200967964,14.0053061318185,3.14494656,-5.594896690714283,-1.842010734047615,0.0,0.9137,1.0
mp-19039,Cd2Mo2O8,12,1,88,149.5092183985517,6.049733854246376,12.45910153321264,1.26735355,-7.080878726666668,-1.814628006666668,0.0,2.4682,1.0
mp-1213935,Cd2Ni2P8O24,36,4,15,441.4198555144265,3.663947794069841,12.261662653178512,1.88543342,-7.287888686111112,-2.411356851031747,1.0,0.042999999999999,1.0
mp-1214259,Cd4P56Pb4,64,3,62,1446.548208186487,3.458690226304107,22.60231575291386,4.34900491,-12.72962715921875,-0.078427773697917,0.0,1.3747999999999991,0.0
mp-913,Cd8P16,24,1,96,560.7532228378684,4.130574789836572,23.36471761824452,2.87265022,-12.884366167083334,-0.181319395734126,0.0,1.4556,0.0
mp-556171,Cd4P8Xe20F88,120,3,33,2301.5265296483567,3.60397655748025,19.17938774706964,-2.96332505,-3.6224397545,-1.819887076476189,1.0,2.4563,0.0
mp-7904,Cd2P8,10,4,14,206.57294924246145,3.7990978568765774,20.65729492424614,5.06563875,-11.34340112,-0.120742532380951,0.0,0.6551,0.0
mp-5328,Cd2P2S6,10,4,12,230.0018155238127,3.459377513709595,23.00018155238127,1.91434382,-11.169029075,-0.526616825282738,0.0,1.756199999999999,0.0
mp-1079559,Cd2P2Se6,10,6,148,261.691952841095,4.825860987294309,26.1691952841095,1.98874219,-3.954065545,-0.581421915334821,0.0,1.0486,0.0
mp-1077904,Cd1Pb2Cl2O2,7,4,12,162.38972529078478,6.439247833462596,23.198532184397827,2.33507838,-4.692486534285714,-1.552727685714284,0.0,2.435499999999999,1.0
mp-37216,Cd1Pb1F6,8,6,148,123.78929984610778,5.816432412251357,15.473662480763473,-2.8855226,-14.09077838125,-2.197492193750001,1.0,2.3364000000000003,0.0
mp-13984,Cd1Pd1F6,8,6,148,107.07479783154636,5.161466376544769,13.384349728943294,-2.24677194,-4.15019011,-1.9473143287499992,1.0,1.7751,0.0
mp-5858,Cd1Pt1F6,8,6,148,109.116910060024,6.414157110926934,13.639613757503,-1.35498027,-4.31737229875,-2.003090078749999,1.0,2.1901,0.0
mp-672,Cd2S2,4,2,186,102.03892478274858,4.702284793707707,25.509731195687145,0.90711455,-14.8461208475,-0.7761274614062491,1.0,1.125,0.0
mp-8459,Cd2S2O8,12,3,63,157.1996351851737,4.404317564057447,13.099969598764474,0.55190351,-5.972622763333334,-1.824253800416666,0.0,2.8625,1.0
mp-1321,Cd8Sb8,16,3,61,471.39929543536505,6.599078064478864,29.462455964710315,3.82295437,-23.001521559375,-0.095869849374999,0.0,0.020099999999999,0.0
mp-1198900,Cd4Sb20O4F112,140,4,14,2408.1849191011443,3.500560430975132,17.20132085072246,-2.65586208,-4.737654354428571,-2.4479159574285703,1.0,0.0242,1.0
mp-1070,Cd2Se2,4,2,186,115.97478237665474,5.480139995990648,28.99369559416369,0.52978313,-3.065567027500002,-0.837606193671875,1.0,0.5724,0.0
mp-1095493,Cd4Se8,12,0,205,307.12565988219865,5.846404192801385,25.59380499018322,2.7812826,-3.285896419166667,-0.635285370729166,0.0,0.6141999999999991,0.0
mp-9178,Cd2Se4O10,16,4,15,241.68229768985867,4.814033428880755,15.105143605616169,0.50150262,-5.412548391250005,-1.326093619960942,0.0,2.9054,1.0
mp-761036,Cd2Se2O8,12,3,63,172.87635982121907,4.90581288409221,14.406363318434922,-0.08181014,-5.351390516666665,-1.3100962353906231,0.0,1.6838000000000002,1.0
mp-3078,Cd2Si2As4,8,1,122,192.1074097836465,5.019279734997139,24.01342622295581,3.06561178,-4.038069480000001,-0.10667615875,1.0,0.400199999999999,0.0
mp-560560,Cd12Si12O36,60,4,14,766.931992499724,4.897479561547846,12.7821998749954,1.4090021,-6.781450762500001,-2.5356085155,0.0,2.8901,1.0
mp-4666,Cd2Si2P4,8,1,122,169.76227734194765,3.960434743397996,21.220284667743456,3.92531796,-11.99330840625,-0.272582178988093,1.0,1.4257,0.0
mp-3829,Cd2Sn2As4,8,1,122,227.44602229194643,5.5626907052611525,28.430752786493304,2.94334634,-3.694455995,-0.1169992175,1.0,0.006299999999999,0.0
mp-754329,Cd2Sn2O6,10,6,148,131.04061486299892,7.073964607426622,13.104061486299893,2.99949297,-5.800440844000002,-1.8377478320000007,0.0,0.9762,1.0
mp-1199087,Cd4Sn4P56,64,3,62,1452.1577294287815,3.040577240363151,22.689964522324715,4.3454439,-5.08347136546875,-0.034333152968748,0.0,1.444499999999999,0.0
mp-5213,Cd2Sn2P4,8,1,122,204.35131321889776,4.762893133664439,25.54391415236222,3.73822178,-4.03502815625,-0.084895882321427,1.0,0.269499999999999,0.0
mp-406,Cd1Te1,2,0,216,70.71162283069633,5.636239502916918,35.355811415348164,1.77816521,-23.321846005,-0.5607400050000031,1.0,0.5846,0.0
mp-1203009,Cd2Te2Pb12O20,36,3,20,630.0047211818222,8.662176663736346,17.500131143939505,4.33246436,-5.732646041111112,-1.518267788148148,0.0,2.0475,1.0
mp-1197724,Ce2Al40V4,46,0,227,747.2452867130281,3.473897514249845,16.244462754631048,8.02424693,-8.663394529565217,-0.243318580869564,0.0,0.021799999999998,0.0
mp-1214275,Ce3Al9Br36,48,6,152,1926.73955751627,3.050673367727259,40.14040744825562,0.2395849,-4.023273529374999,-1.7222087931249992,0.0,0.2026,0.0
mp-1021508,Ce1As12Ru4,17,0,204,310.41142448739595,7.721731745038402,18.259495558082115,6.63522722,-6.302099220000001,-0.474097430588236,1.0,0.238199999999999,0.0
mp-2646929,Ce8B24H96,128,0,205,1464.4410916429429,1.674954586368494,11.440946028460491,-0.05555809,-4.5696319559375,-0.399811802968749,0.0,0.3439,0.0
mp-1188930,Ce2B8Os8,18,1,86,231.2010595383645,13.564071314723869,12.84450330768692,8.07229822,-9.042316087222222,-0.424095345740738,0.0,0.226899999999999,1.0
mp-768918,Ce2Cl8O32,42,4,9,779.5320131767216,2.291719910777973,18.56028602801718,-2.32499502,-5.25982319952381,-0.855132859047619,0.0,1.6159,1.0
mp-1021509,Ce1Fe4As12,17,0,204,282.4226703224739,7.423349658669892,16.61309825426317,6.62471143,-6.044359057058813,-0.405623462941166,0.0,0.1467,0.0
mp-16272,Ce1Fe4P12,17,0,204,232.87658602688083,5.242248830025205,13.698622707463578,9.09184086,-6.812036392941179,-0.647170686218489,0.0,0.520899999999999,0.0
mp-1181682,Ce1Fe4Sb12,17,0,204,383.8166267251039,7.893994002801378,22.577448630888465,8.30863924,-5.602989857647059,-0.346222234705882,0.0,0.231199999999999,0.0
mp-23493,Ce2I8O24,34,1,86,524.3357602973116,5.318725377859627,15.42164000874446,2.30003245,-5.537420243235293,-1.336918337941175,1.0,1.4876,1.0
mp-38564,Ce1Mo6S8,15,6,148,278.7203183825921,5.7925532336017085,18.58135455883947,6.70218967,-17.850693862,-1.080527324833332,0.0,0.338499999999999,0.0
mp-1021505,Ce1P12Os4,17,0,204,264.17971264197257,7.999869328967046,15.539983096586624,8.59162355,-7.4380929500000015,-0.6244398973949571,1.0,0.282999999999999,1.0
mp-10069,Ce1P12Ru4,17,0,204,261.34444139276223,5.820627060904263,15.373202434868366,8.72263596,-7.036512740588229,-0.6823808385714201,0.0,0.191500000000001,0.0
mp-5843,Ce2P6O18,26,3,20,355.982049786194,3.517459245110276,13.691617299469,4.77999194,-8.103410987307694,-2.971486411071429,0.0,0.222799999999999,1.0
mp-1019593,Ce8P32O96,136,4,15,1928.676007240639,3.140858086194677,14.18144122971058,0.7243499,-7.993407087720588,-2.877267321165965,0.0,1.2397,1.0
mp-21947,Ce8S16O64,88,3,61,1142.053382379827,3.8646143912077,12.977879345225308,2.26422473,-7.319289491477287,-2.428620669204559,1.0,1.0168,1.0
mp-1105726,Ce1Sb12Os4,17,0,204,409.97240036287104,9.567600931018244,24.11602355075712,7.9637103,-6.217029772941166,-0.311474804117635,1.0,0.0514,1.0
mp-1189811,Ce1Sb12Ru4,17,0,204,412.2900741381517,8.077414120756778,24.25235730224422,7.91387457,-5.922148895882353,-0.476115077647058,0.0,0.0433,0.0
mp-541090,Ce4Se8O24,36,4,14,530.4649969519743,4.933831242142414,14.735138804221508,2.00499906,-6.873880990555556,-2.138710006631945,0.0,1.2671,1.0
mp-21838,Ce8Se16O64,88,3,61,1259.5452224253222,4.493313545841641,14.313013891196844,1.18763168,-6.616144519318181,-1.842284440653407,0.0,1.2845,1.0
mp-1213885,Ce4Al18Ir6,28,3,63,469.9624809316184,7.771355635394219,16.784374318986373,8.58075792,-5.987297437142857,-0.8373413835714271,0.0,0.0205,0.0
mp-1213877,Ce4Ga18Ir6,28,3,63,474.476494679873,10.389924949742438,16.945589095709753,6.40709135,-5.360716062142855,-0.6719970276785671,0.0,0.0078,0.0
mp-1199805,Ce8H32S12O64,116,4,14,1303.2749092055965,3.264218720270417,11.235128527634451,3.88834431,-6.540316051379309,-2.036257912327585,1.0,0.0454,1.0
mp-1069558,Ce2Se1N2,5,6,164,93.33041572991068,6.889176357675001,18.66608314598213,5.71486654,-8.316066302,-1.906792960468748,0.0,0.8943000000000001,0.0
mp-662527,Ce8Si8O28,44,4,14,641.1657699146083,4.645187000021696,14.571949316241096,6.61626686,-8.778385632954546,-3.563816284318179,0.0,0.0701,1.0
mp-1195865,Ce4Te8Cl4O22,38,5,2,715.3534820319043,4.816811452795452,18.82509163241853,3.41423812,-6.57463705894738,-2.228753902719308,0.0,1.4548,1.0
mp-1196951,Ce4Te14Br4O34,56,4,13,1051.5933413182331,5.069539125131938,18.77845252353988,2.72865129,-6.300115439464286,-1.969177184166666,0.0,1.2014,1.0