material_id,composition,nsites,crystal_system,space_group,volume,density,density_atomic,efermi,energy_per_atom,formation_energy_per_atom,is_gap_direct,band_gap,is_oxide
mp-1192409,Rb4Sn12As12,28,3,62,882.0002043058765,5.018235254001864,31.500007296638447,4.58160944,-4.109207996785714,-0.2492626775,0.0,0.5979000000000001,0.0
mp-505750,Rb8Sn16Se32,56,4,14,2029.4019052097813,4.181064232178622,36.23931973588896,1.69246452,-4.159533344642857,-0.876201388482142,0.0,1.2091,0.0
mp-1219774,Rb12Sn2As6O1,21,6,164,761.1618461798251,3.771005786442884,36.24580219903929,1.72993192,-3.017156169523809,-0.505049084761904,1.0,0.3095,1.0
mp-680306,Rb56Si40O68,164,4,14,3798.365368420666,3.05914444568927,23.16076444158943,1.982994409999999,-5.897217369207317,-2.187558969207317,0.0,1.4904,1.0
mp-680314,Rb56Si24Ge16O68,164,4,14,3820.2401237295135,3.3514909299702342,23.294147095911672,1.85637114,-5.849381375182928,-2.217995187378049,0.0,1.342799999999999,1.0
mp-1194699,Rb28Zn2Ge32,62,3,31,2314.882687262957,3.47790912984968,37.3368175364993,1.6363636,-3.051141190806451,-0.181603568064516,0.0,1.0649,0.0
mp-1209652,Rb4Nb6Br18,28,4,12,910.5466345991238,4.2629835984288444,32.51952266425442,0.99432073,-4.875198453214283,-1.518234018928569,1.0,1.118399999999999,0.0
mp-22976,Rb4Nb6Cl18,28,4,12,784.0843854180101,3.25605026638775,28.003013764928934,1.53228609,-5.377415341785714,-1.884424737142858,0.0,1.074899999999999,0.0
mp-569883,Rb16P24Se48,88,3,29,2879.9600856668585,3.402385085773089,32.72681915530521,1.6716157999999992,-4.308024761590909,-0.7459377082264611,0.0,1.5965999999999991,0.0
mp-541355,Rb8Tc12Se24,44,4,15,1135.1004747978484,5.492873098209655,25.797738063587463,2.9068659,-5.910154537954544,-0.99938600650568,1.0,0.899,0.0
mp-541916,Rb8Ag4As12Se24,48,4,14,1549.3122335507032,4.189968390002707,32.277338198972984,1.17295607,-4.016229191041667,-0.70040900047743,0.0,1.4299,0.0
mp-555852,Rb4Ag4Ge2S8,18,4,15,498.2353196280587,3.916568023192983,27.679739979336592,1.17998598,-4.085941531111112,-0.883340461481481,0.0,1.907,0.0
mp-510240,Rb4Ag8S6,18,4,12,437.5403649881053,5.302634136583595,24.307798054894736,2.21040973,-3.491192606111107,-0.630315099351846,1.0,0.1922,0.0
mp-1111655,Rb2Ag1As1Cl6,10,0,225,286.45086300134926,3.283639591315527,28.645086300134928,0.99409247,-3.592372868999999,-1.535834353416666,0.0,1.2354,0.0
mp-567714,Rb8Ag4Br12,24,3,62,846.462050153911,4.068774222744162,35.269252089746296,-0.91650339,-3.19599115375,-1.576850249027777,0.0,2.6666,0.0
mp-29693,Rb8Ag4Cl12,24,3,62,739.9678302988775,3.457328009206633,30.83199292911989,-0.69757397,-3.489617470416666,-1.764678433194443,1.0,2.9649,0.0
mp-23399,Rb8Ag4I12,24,3,62,1028.4266354094832,4.259532200326508,42.85110980872847,0.46035639,-2.853070439583334,-1.290396494861111,0.0,2.78,0.0
mp-1110784,Rb2Ag1Mo1F6,10,0,225,173.52755470582318,4.676849538631881,17.352755470582316,0.01317761,-5.30388444000001,-2.590607421666676,1.0,2.6738,0.0
mp-1105212,Rb4Ag2P2S8,16,5,2,458.1123424363766,3.175546332023303,28.632021402273537,1.41145597,-4.33694723375,-0.990332531413689,0.0,2.2636,0.0
mp-1110602,Rb2Ag1Rh1F6,10,0,225,172.96377428274786,4.758966161831451,17.296377428274788,0.13435921,-4.629635298999999,-2.264492504666665,0.0,1.390499999999999,0.0
mp-1110803,Rb2Ag1Sb1Cl6,10,0,225,311.42298840531134,3.270080969133103,31.142298840531133,1.07258795,-3.618211762,-1.615785375666666,0.0,1.6275,0.0
mp-557540,Rb8Ag4Sb4S16,32,4,14,979.6760925084836,3.585399647752496,30.61487789089012,2.04518054,-4.0732688203125,-0.8874631536458321,1.0,1.519,0.0
mp-1205560,Rb4As4Pd2,10,3,63,309.1771613383389,4.588827282933428,30.91771613383389,1.69870148,-3.793550511,-0.497311507,0.0,1.1458,0.0
mp-15556,Rb4As6,10,3,69,357.21048475557,3.678928815982916,35.721048475557,1.77841584,-3.601258795999999,-0.406971647499999,0.0,0.3968,0.0
mp-16184,Rb4B4Se14,22,4,15,637.3124204335259,3.8836919871106463,28.968746383342083,0.9367196,-4.437263315909092,-0.8198785858854161,0.0,1.7163,0.0
mp-571293,Rb8Ba4Nb8Se44,64,4,14,1920.570552372264,4.712577199552886,30.00891488081661,1.47489653,-5.126164949687499,-1.217559985986327,0.0,1.5628000000000002,0.0
mp-755752,Rb8Be8O12,28,3,62,440.4051059971685,3.573784982178108,15.72875378561316,1.10319242,-5.846834382142857,-2.377723397857144,1.0,2.455,1.0
mp-989573,Rb2Br1Cl6F1,10,0,225,256.3442047259175,3.125887304504135,25.63442047259175,0.16159894,-2.841605019,-1.1812926335,1.0,0.9202999999999992,0.0
mp-1029784,Rb6C3N6,15,4,12,310.2616900838648,3.387206682528483,20.68411267225765,0.77108726,-6.146160656,-0.5729028305,1.0,2.8228,0.0
mp-541897,Rb4Cd2P4Se12,22,4,14,693.839135314636,3.920422764694838,31.53814251430164,1.21803082,-4.011350242727273,-0.854305310758928,0.0,1.7916999999999992,0.0
mp-1209499,Rb4Cd4O6,14,4,14,273.9954078836132,5.378731327083722,19.57110056311523,0.34635855,-4.044920198571428,-1.369924264285714,0.0,1.0967,1.0
mp-18556,Rb8Cd12S16,36,3,62,1011.0137409558909,4.181207477565439,28.083715026552525,0.92524765,-3.426596107777777,-1.049425331666664,1.0,1.8924,0.0
mp-16818,Rb8Cd12Se16,36,3,62,1126.4594692966657,4.858757936026603,31.290540813796262,0.641294599999999,-3.133987261388887,-1.042348969652775,1.0,1.5237,0.0
mp-29901,Rb8Cd12Te16,36,4,15,1340.779552095867,5.045938982790017,37.24387644710742,1.64509292,-2.798152902222221,-0.863228203518516,1.0,1.4415,0.0
mp-1209531,Rb4Cd2I8,14,4,11,666.0933629707251,3.94367364201069,47.5780973550518,-0.44246267,-2.6372799507142872,-1.349118694285715,1.0,2.8476999999999992,0.0
mp-28364,Rb8Cd4O8,20,3,60,425.7901167915607,4.91926266507445,21.28950583957804,0.60747686,-3.9170275494999993,-1.353627480499999,0.0,1.3109,1.0
mp-558568,Rb16Cd8Si8O32,64,3,20,1101.6411856310683,4.527177754377787,17.213143525485446,0.94252452,-5.8296708784375,-2.312390830312499,1.0,2.4877,1.0
mp-23366,Rb8Co4Br16,28,3,62,989.5699183894728,3.688232439745912,35.34178279962403,0.36426775,-3.726213035714287,-1.491602892142858,0.0,0.7445,0.0
mp-23076,Rb8Co4Cl16,28,3,62,849.6273981745227,2.9056995182995182,30.343835649090096,0.557827,-4.120397203214287,-1.764874908214286,0.0,0.7331000000000001,0.0
mp-560878,Rb2Co1F6,9,0,225,147.89574373500795,3.860771406731968,16.432860415000885,-2.6403148400000003,-4.76808583,-2.481685928333333,0.0,1.179,0.0
mp-27517,Rb4Co2I8,14,4,11,619.0173880404202,3.956675397475176,44.21552771717287,1.04739785,-3.292260154285713,-1.122183679285713,0.0,0.557499999999999,0.0
mp-1277299,Rb4Co2O6,12,3,63,197.96851146885425,4.661438297361132,16.497375955737855,1.44379544,-5.449401424166666,-1.459673444166666,0.0,0.575299999999999,1.0
mp-1219755,Rb4Cr2Br4Cl4,14,3,64,449.8160585228962,3.349353109885737,32.12971846592116,1.56320937,-4.426159737857143,-1.771146268571428,0.0,0.3424,0.0
mp-622624,Rb8Cr8As8O36,60,3,62,949.6686505616292,3.978050651581018,15.827810842693818,0.96016919,-7.108557407166667,-2.0992869275,1.0,2.2216,1.0
mp-17385,Rb4Cr4O14,22,4,15,388.3481168202826,3.308895940323793,17.652187128194665,-1.85075565,-7.017274270227272,-1.9351933502272711,0.0,2.765,1.0
mp-33498,Rb4Cr2Cl8,14,3,64,408.6937775567071,2.963936308338789,29.19241268262193,1.82513168,-4.621842268571428,-1.906372723571428,0.0,0.5668000000000001,0.0
mp-2041196,Rb2Cr1F6,9,1,139,151.851083096319,3.684348704832016,16.872342566257668,-2.76175345,-5.531312068888889,-2.964953194999999,1.0,1.878099999999999,0.0
mp-571638,Rb4Cu2Br4Cl4,14,3,64,443.18966329041456,3.485981426891885,31.65640452074389,0.21518278,-3.443156592142857,-1.581548951428571,0.0,0.136599999999999,0.0
mp-1195291,Rb8Cu8Sb8S20,44,4,14,1155.370532201193,4.035023707435736,26.25842118639076,3.53726762,-4.3523573254545465,-0.7969680706818171,0.0,1.1696,0.0
mp-1198918,Rb4Cu6P8O28,46,4,14,647.5279326901239,3.638720118557421,14.076694188915736,1.791224629999999,-6.80953398673913,-2.2359671899378872,0.0,0.607,1.0
mp-1110686,Rb2Cu1Sb1Cl6,10,0,225,282.3571137542514,3.346045121921012,28.235711375425137,2.22779656,-3.716317685,-1.588264399499999,0.0,0.9004999999999991,0.0
mp-1200007,Rb8Fe8As8O36,60,3,62,978.4821349866828,3.913162895623394,16.308035583111383,-0.10727578,-6.723146452166666,-1.8716128071666664,0.0,1.6391,1.0
mp-1206640,Rb2Fe1F4,7,1,139,120.35284577193308,4.177453432768849,17.193263681704725,-0.48161519,-5.411474207142858,-2.827688656428572,0.0,2.8943000000000003,0.0
mp-28600,Rb8Fe4F20,32,3,62,521.2138297970756,4.100551204776018,16.287932181158613,-2.33076863,-5.398078079062505,-2.898034175312505,0.0,2.8688,0.0
mp-1101471,Rb8Fe4O16,28,3,62,508.54752612089385,3.797863806348305,18.162411647174785,0.78962806,-5.748711122142857,-1.43114921142857,0.0,1.7002000000000002,1.0
mp-1110609,Rb2Ga1Ag1F6,10,0,225,169.71613013663122,4.525367805867886,16.971613013663124,-0.53805464,-4.628961162,-2.6974395524166663,0.0,2.4254,0.0
mp-15416,Rb16Ga8As16,40,4,14,1389.0514541183802,3.734597404898477,34.726286352959505,1.19454231,-3.337592910250001,-0.471711063750001,0.0,0.8679999999999991,0.0
mp-29371,Rb16Ga8Sb16,40,3,62,1581.464834524584,4.06710266562906,39.5366208631146,2.42219309,-3.13969530125,-0.490261971749999,0.0,1.045,0.0
mp-541879,Rb8Ge8S20,36,4,15,1077.9363770244647,2.936404411196689,29.942677139568463,0.31279143,-4.598753461111112,-1.054428828611111,0.0,2.4577,0.0
mp-541880,Rb8Ge8Se20,36,4,15,1227.949513842194,3.845986068491636,34.10970871783872,1.56945138,-4.147474408055554,-0.960065381024303,0.0,1.54,0.0
mp-557372,Rb12Ge24O54,90,6,165,1262.434115077184,4.778578713307232,14.027045723079825,1.44622442,-6.485030125333333,-2.152708218,1.0,2.862,1.0
mp-11639,Rb4Ge2S6,12,4,12,372.7401639481898,3.027322567044559,31.06168032901581,0.50525716,-4.362619344166667,-1.196090227083332,0.0,2.279899999999999,0.0
mp-9794,Rb4Ge2Se6,12,4,12,419.1960637337528,3.8064064173725902,34.93300531114606,0.26010847,-3.955897290833332,-1.110592218671873,0.0,1.4969,0.0
mp-644494,Rb4H8Pd2,14,1,136,294.94501437990084,3.168419070312513,21.067501027135773,-1.51924998,-3.332752727142856,-0.37252191142857,0.0,2.997,0.0
mp-21760,Rb16In16Sb24,56,4,14,2114.541797115475,4.81135535936126,37.75967494849063,3.61785737,-3.259907924464284,-0.421848017083331,1.0,0.9657999999999992,0.0
mp-27563,Rb2In4O7,13,6,162,204.3699170921288,6.030524250336519,15.720762853240672,2.94567545,-5.5584429538461535,-1.894328326666664,0.0,1.4515999999999991,1.0
mp-1111634,Rb2In1Ag1Cl6,10,0,225,294.8747239722056,3.41450400350128,29.48747239722056,0.29840226,-3.576186605,-1.710742968333332,1.0,1.293,0.0
mp-1110608,Rb2In1Ag1F6,10,0,225,188.82908107521712,4.463877681686978,18.88290810752171,0.11177376,-4.526358544,-2.621729162333333,0.0,1.8555,0.0
mp-1113736,Rb2Li1Co1F6,10,0,225,139.7729133876992,4.167599044279583,13.97729133876992,1.24836996,-4.967113899999999,-2.718461701833333,1.0,2.8411,0.0
mp-989583,Rb2Li1In1Cl6,10,0,225,274.5545136436541,3.056796830305095,27.45545136436541,-0.23958333,-3.7524209589999993,-1.980378803499999,1.0,2.8282,0.0
mp-553962,Rb8Li4Nb4S16,32,5,2,946.273444327009,2.800993566986309,29.57104513521903,1.22422436,-5.2873305225,-1.471738732291666,0.0,2.3505000000000003,0.0
mp-1206187,Rb2Li1Rh1Cl6,10,6,164,267.09430783500386,3.068115535907391,26.709430783500387,0.53791513,-4.033595867,-1.8010402988333332,0.0,1.6499,0.0
mp-1113707,Rb2Li1Rh1F6,10,0,225,147.77691865800847,4.435978206236426,14.777691865800849,0.12166667,-4.916910772,-2.645169458833333,1.0,1.7225,0.0
mp-1110680,Rb2Li1Sb1Cl6,10,0,225,278.0206653745919,3.060149604727796,27.80206653745919,0.50708333,-3.787190120999999,-1.878165215833332,0.0,2.9411,0.0
mp-680436,Rb16Li8Sn32,56,5,2,2034.8301962419232,4.261235815037861,36.336253504320055,3.06171606,-3.135499364464284,-0.291459588511903,1.0,1.087899999999999,0.0
mp-558815,Rb4Li2V2S8,16,3,70,469.0370200452868,2.528338316749715,29.314813752830425,0.36794846,-5.120613066875,-1.432196147916666,1.0,1.5836,0.0
mp-1025227,Rb2Mg1Cl4,7,1,139,201.8031888312532,2.773439870006772,28.82902697589332,3.9617024,-3.843330685714284,-2.273943634285713,1.0,0.0009,0.0
mp-1541753,Rb8Mg4O8,20,3,72,379.7162111189221,3.974967516491585,18.985810555946102,1.17822026,-4.5985464525,-1.9010544184999991,1.0,2.311099999999999,1.0
mp-559643,Rb4Mn2P4S12,22,4,14,597.9972535297757,2.66693334002896,27.18169334226253,2.96511002,-5.245448599090909,-0.992340608837884,1.0,0.2352,0.0
mp-1105776,Rb4Mn6S8,18,3,72,468.2149689648238,3.291250145008073,26.01194272026799,2.51186814,-6.116701268333333,-1.005528791532566,0.0,0.387,0.0
mp-1209522,Rb4Mn6Te8,18,3,72,636.7601722521399,4.413167633243146,35.37556512511888,2.75907431,-5.330724423333332,-0.661798023939972,1.0,0.2427,0.0
mp-22978,Rb2Mn1Cl4,7,1,139,206.42802071514225,2.957720447230604,29.489717245020323,1.18056017,-4.599409265714286,-1.954087174704433,0.0,1.2877,0.0
mp-571648,Rb2Mn1Cl6,9,0,225,241.7560222857117,3.012535340055115,26.861780253967968,-0.57847454,-4.307813721111111,-1.839553694770114,0.0,1.2037,0.0
mp-555014,Rb2Mn1F5,8,1,123,149.1685252624626,3.571865876420315,18.646065657807824,-1.33006713,-5.558675035,-2.972131870991379,0.0,1.5873,0.0
mp-1209441,Rb4Mn2I8,14,4,11,644.6604560687039,3.778706513844877,46.04717543347885,0.47453599,-3.761009347142857,-1.301133076133005,1.0,2.091,0.0
mp-505209,Rb8Mn4O16,28,3,62,512.7969112683886,3.75464450763475,18.31417540244245,0.05133045,-6.137964108571428,-1.721545900418719,0.0,0.6351,1.0
mp-19472,Rb8Mn4V8O28,48,1,136,924.9996450930764,3.157735760998654,19.27082593943909,0.04178983,-7.716182752291666,-2.388964201285919,1.0,2.6013,1.0
mp-1219951,Rb8Mo8P8O44,68,4,4,1064.549539499581,3.748363568259147,15.655140286758543,1.22358857,-7.670840959264706,-2.440788813928571,0.0,2.4189,1.0
mp-1210317,Rb8Mo12P12O68,100,4,14,1583.1609378963765,3.455695949086076,15.831609378963766,0.69582244,-7.779155919,-2.384764873557143,1.0,2.3576,1.0
mp-557413,Rb8Mo12S4O52,76,4,14,1238.5195278596077,3.747719526539981,16.2963095771001,-0.66436752,-7.479435139868422,-2.060494555263159,0.0,2.8832,1.0
mp-1194625,Rb8Mo12Se12O64,96,4,14,1625.9082886384683,3.887580033473,16.93654467331738,0.01593846,-6.935441421666667,-1.762394380501302,0.0,2.6974,1.0
mp-1198721,Rb4Mo6Se2O24,36,2,173,554.6957800289503,4.368914814397682,15.408216111915284,0.29207364,-7.366441572777777,-1.957027016519096,0.0,2.5069,1.0
mp-555873,Rb4Mo2As4O18,28,5,2,506.46205441867534,3.676826319929643,18.08793051495269,-0.69718146,-6.718278190714286,-1.955520164642857,0.0,2.761,1.0
mp-18612,Rb8Mo4S16,28,3,62,864.0736069011366,3.037417623517359,30.859771675040594,0.49749534,-5.435104905714285,-1.240796830714284,1.0,1.5750000000000002,0.0
mp-1193232,Rb8Mo4Se16,28,3,62,956.4476588767892,4.046732759651865,34.158844959885336,1.38846356,-4.927172161785715,-1.099977280982144,1.0,1.0392,0.0
mp-504851,Rb8Na12In4O16,40,3,58,732.7483278126618,3.795582929983435,18.318708195316542,2.9406948,-4.4836015085,-1.629876684080459,1.0,1.9079,1.0
mp-18151,Rb4Na8Co4O10,26,1,136,440.73251574789896,3.471977870321279,16.951250605688422,1.59316711,-4.999944848846154,-1.435745639270557,0.0,1.3561,1.0
mp-1206059,Rb2Na1Cr1Cl6,10,0,225,272.9426398915875,2.7902886721057323,27.294263989158747,0.33653383,-4.392179571,-1.98747025163793,1.0,1.3631,0.0
mp-1206176,Rb2Na1Cu1F6,10,0,225,154.87608148718255,3.982711891966313,15.487608148718255,-1.39695443,-4.46181597,-2.573304985637931,0.0,0.7354,0.0
mp-18518,Rb4Na2Mn6F24,36,5,2,533.5481034271942,3.652049530045886,14.820780650755394,-1.47087492,-5.9261407761111125,-2.939748370565135,0.0,1.8271,0.0
mp-558050,Rb2Na1Mn1F6,10,1,139,160.71936278326254,3.748975577831617,16.071936278326255,-0.8452329900000001,-5.380101318999999,-2.985309472431034,0.0,1.678599999999999,0.0
mp-18873,Rb4Na2Mn2O8,16,4,11,275.7186708834195,3.768463956129435,17.23241693021372,0.53822359,-5.847650371250002,-1.815569341788795,0.0,1.811599999999999,1.0
mp-1205865,Rb2Na1Pd1F6,10,1,139,167.39587822181625,4.11014160426255,16.739587822181626,-0.38750226,-4.501113445,-2.5045349466379303,0.0,0.5886,0.0
mp-14038,Rb2Na1Rh1F6,10,0,225,162.6567809612567,4.194013891584873,16.26567809612567,0.30250179,-4.853334492,-2.63831338763793,1.0,1.957,0.0
mp-1114119,Rb2Na1Sc1I6,10,0,225,426.3012480626744,3.896424625451023,42.63012480626743,0.7675000000000001,-3.439522203000001,-1.561588831137932,0.0,2.2079,0.0
mp-554147,Rb4Nb4P4S22,34,4,11,952.2225625005674,2.690459058055932,28.006545955899043,1.94639897,-5.72881324382353,-1.110190860399159,1.0,1.119099999999999,0.0
mp-558393,Rb4Nb6Cl14O10,34,4,15,824.6942801393953,3.132324493487547,24.255714121746923,-0.79683011,-6.575368368235295,-2.460980845294118,1.0,2.2762,1.0
mp-14636,Rb4Nb2Ag2S8,16,3,70,503.1664893700713,3.299981352352818,31.447905585629453,0.58494709,-5.1956631375,-1.263319495833332,0.0,2.1794,0.0
mp-9764,Rb4Nb2Ag2Se8,16,3,70,551.3044355188575,4.141827493418777,34.4565272199286,0.49661676,-4.777226801249999,-1.166107204505207,0.0,1.7584,0.0
mp-15221,Rb4Nb2Cu2S8,16,3,70,471.7836454388205,3.207492581493021,29.486477839926284,1.25257273,-5.405047423125,-1.3156701574999992,0.0,1.9749,0.0
mp-15222,Rb4Nb2Cu2Se8,16,3,70,521.2685951855705,4.098099135014877,32.579287199098154,0.93032177,-4.960720204999999,-1.192566984296874,0.0,1.639399999999999,0.0
mp-8994,Rb2Nb1F6,9,6,164,150.7980959602558,4.160566189537066,16.755343995583978,1.98987754,-5.851578096666665,-3.235412826111109,0.0,0.228299999999999,0.0
mp-1079718,Rb2Ni3S4,9,3,69,200.3672182339372,3.938838100692336,22.263024248215245,3.47403028,-4.930707757777778,-0.946828151666666,0.0,0.8026000000000001,0.0
mp-18691,Rb4Ni6Se8,18,3,70,446.6522867600814,4.9286569622496295,24.81401593111564,1.20013859,-4.543760967777779,-0.845413846041668,0.0,0.2661,0.0
mp-1205648,Rb4Ni2As4,10,3,63,291.0231916331726,4.330434349595817,29.10231916331725,2.59738137,-3.808825912,-0.392535934,0.0,0.5596999999999991,0.0
mp-556417,Rb2Ni1F6,9,0,225,146.02450925512437,3.907518488058048,16.224945472791596,-3.17595707,-4.525830256666663,-2.389794803888885,0.0,2.421599999999999,0.0
mp-19167,Rb2Ni1O2,5,1,139,113.0600229530859,3.842588843174771,22.612004590617182,-0.06701135,-4.792896704999999,-1.265471337999999,1.0,2.8076,1.0
mp-1205511,Rb4Ni2P4,10,3,63,268.8856535224585,3.60133910205062,26.88856535224585,3.16842909,-4.1498223140000015,-0.435391938857142,0.0,0.6448,0.0
mp-753746,Rb2O1,3,6,166,96.20782920808556,3.226482428404933,32.06927640269519,0.53506081,-3.43617809,-1.133168373333332,0.0,0.4534,1.0
mp-7895,Rb2O2,4,3,71,88.54103940072844,3.805924364992925,22.13525985018211,1.29022195,-4.1972411,-1.23299356125,0.0,1.76,1.0
mp-1205714,Rb4P4Pd2,10,3,63,290.17306068958675,3.883379742299029,29.017306068958675,2.22441422,-4.099531158000002,-0.5051517568571441,0.0,1.265299999999999,0.0
mp-2079,Rb4P6,10,3,69,321.0463988705387,2.729478783975418,32.10463988705387,2.31509446,-4.072774383,-0.431276638785714,1.0,0.7643999999999991,0.0
mp-1196612,Rb16P8S24,48,4,14,1528.5151745354146,2.590822504200919,31.84406613615447,0.791503899999999,-4.489681842916666,-1.191078447440475,1.0,2.8545,0.0
mp-555122,Rb4Pd2N8O24,38,4,14,644.5547542156297,2.70700367507004,16.961967216200783,0.16343177,-6.390292369210526,-1.133998001052631,0.0,1.8294,1.0
mp-11695,Rb2Pd3S4,9,3,69,224.77253878478703,4.568928616946554,24.974726531643007,1.94353394,-4.734414442222219,-0.9506197927777732,0.0,1.184899999999999,0.0
mp-14340,Rb4Pd6Se8,18,3,70,493.1541628489084,5.428134663360606,27.397453491606026,1.62311938,-4.428611713333333,-0.930349548263888,0.0,0.882599999999999,0.0
mp-28084,Rb2Pd1Br6,9,0,225,287.8257554495306,4.366051567008823,31.98063949439229,-0.50427101,-3.224109417777777,-1.339372843888888,0.0,0.547899999999999,0.0
mp-1025201,Rb2Pd1Cl4,7,1,123,228.49132659374047,3.046260817114228,32.64161808482008,-1.21783317,-3.809887898571429,-1.733442019285714,1.0,1.7485,0.0
mp-28145,Rb2Pd1Cl6,9,0,225,245.20533574991225,3.318795473273436,27.245037305545804,-0.75728679,-3.600853567777777,-1.575052817222221,0.0,1.2868,0.0
mp-14088,Rb2Pd1F6,9,0,225,152.8630793482185,4.251159640449615,16.9847865942465,-2.83760292,-4.470746124444445,-2.401405657222222,1.0,2.2306,0.0
mp-1069771,Rb2Pd1Se2,5,3,71,148.2176772272138,4.876558262546061,29.64353544544276,1.54803756,-3.892847088000002,-1.066292505937501,0.0,0.889,0.0