material_id,composition,nsites,crystal_system,space_group,volume,density,density_atomic,efermi,energy_per_atom,formation_energy_per_atom,is_gap_direct,band_gap,is_oxide
mp-541291,Na12Mo4N12,28,4,9,419.2559270948067,3.278325657817331,14.973425967671668,1.96542943,-6.229639401071428,-0.531690018091132,1.0,1.4075,0.0
mp-555804,Na6Nd28Ru12O72,118,6,167,1550.0320690877004,7.007877757483943,13.135864992268647,4.46394232,-8.04847883779661,-2.886576502019288,0.0,0.006,1.0
mp-971678,Na6Ni4Sb2O12,24,4,12,269.0688820488965,4.987901993423924,11.211203418704022,3.93880748,-5.900248681666668,-1.783398434511494,0.0,2.2487999999999992,1.0
mp-554649,Na6Ni2F12,20,4,14,234.30148481073897,3.425283099166948,11.715074240536948,-1.43515139,-6.7642942,-2.621251543,0.0,0.636,0.0
mp-1180577,Na6Np2H4O12,24,3,43,321.5006340353797,4.1731003785305,13.395859751474154,2.1724654,-6.738824649583333,-2.284571239198994,0.0,1.4886,1.0
mp-1029595,Na12Os4N8,24,4,14,419.0891072361607,4.552043119780143,17.46204613484003,3.04234941,-5.476259444166668,-0.154745234856322,0.0,0.6775000000000001,1.0
mp-555476,Na9Os3O15,27,6,152,350.5649454949248,4.820065961982677,12.9838868701824,2.27114948,-6.226370055925924,-1.782777301385694,0.0,0.096699999999999,1.0
mp-1598,Na6P2,8,2,194,183.7644767219801,1.806218207845844,22.97055959024751,1.44909869,-5.38525872875,-0.461604223244047,1.0,0.4033,0.0
mp-473,Na12P44,56,3,60,1275.9125150296695,2.132719233638486,22.78415205410124,2.94244015,-8.13539176482143,-0.298578826088434,0.0,1.623899999999999,0.0
mp-11738,Na6P2S6O2,16,3,36,336.12799453678593,2.096002486460243,21.00799965854912,1.3160287,-4.843192189374999,-1.492732743285097,1.0,2.8392,1.0
mp-28782,Na6P2S8,16,1,114,339.26043194597605,2.233918706132584,21.203776996623503,2.1597429,-4.36861949125,-1.119360224847598,1.0,2.291899999999999,0.0
mp-1078419,Na3P1Se4,8,0,217,192.4378532586137,3.5877766198750303,24.054731657326712,1.89370168,-10.525202985,-0.907595616778273,1.0,1.116899999999999,0.0
mp-1246353,Na12Re8N20,40,1,80,687.8041364690882,4.938775699103994,17.195103411727207,2.58085409,-7.410259182750001,-0.348981235163795,1.0,0.6341999999999991,0.0
mp-28205,Na9Re3O15,27,6,152,353.64460988133425,4.721421078098363,13.097948514123493,0.55206769,-6.723116963333333,-2.14388567795977,0.0,2.4306,1.0
mp-7956,Na6Sb2,8,2,194,232.17691812387204,2.728208035261483,29.022114765484005,1.71192918,-9.66926654875,-0.569552188749999,1.0,0.3946,0.0
mp-556577,Na6Sb6As4O28,44,4,14,563.0246950333345,4.766594581033364,12.796015796212147,4.04447232,-6.244022873409091,-1.924756273824451,0.0,1.8894,1.0
mp-1210360,Na6Sb6P4O28,44,4,14,535.9427069042343,4.462794291171883,12.180516066005326,2.46195114,-6.65846490840909,-2.271439127655618,0.0,2.1435,1.0
mp-7404,Na6Sb2O8,16,4,13,192.33816514824463,4.3983364555497655,12.02113532176529,2.42203936,-5.491761628125,-1.99851067864224,1.0,2.1351,1.0
mp-560642,Na12Sb4P8O36,60,3,19,794.7599539343404,3.315156511919054,13.245999232239006,1.05429281,-6.7017205383333405,-2.467269893561583,0.0,2.7687,1.0
mp-1193673,Na12Sb4S12,28,0,198,644.6723289992628,2.956224431503586,23.02401174997368,2.16270584,-9.67582996607143,-1.032422153705356,0.0,2.3949,0.0
mp-1193265,Na12Sb4Se12,28,0,198,727.1157295107176,3.906184020460744,25.968418911097057,1.59705108,-12.329539761785714,-0.996177171383929,0.0,1.9982,0.0
mp-8703,Na3Sb1Se4,8,0,217,210.1714623304772,4.002342260369101,26.27143279130965,1.89523211,-12.587981,-0.8823437045312481,1.0,0.9870999999999992,0.0
mp-28303,Na24Si8Se32,64,4,14,1680.8555052797617,3.263233307852974,26.26336726999628,1.00764239,-4.0242721740625,-1.095006389501616,0.0,1.809699999999999,0.0
mp-17291,Na12Si4Te12,28,4,14,892.3386739156424,3.5718171945531223,31.869238354130086,2.18465501,-3.543541466428571,-0.8463417455911321,0.0,1.9397,0.0
mp-41095,Na6Sr6Al2P8,22,2,186,570.6065083576336,2.809473721927247,25.93665947080153,2.70771729,-3.956510118636363,-0.8192449788826681,1.0,1.1229,0.0
mp-10097,Na6Sr6Ga2As8,22,2,186,618.3953999616714,3.765986194116566,28.10888181643961,2.3094313,-3.614142906363636,-0.813139928330721,1.0,0.4377,0.0
mp-10096,Na6Sr6Ga2P8,22,2,186,570.4912485252823,3.058858007268183,25.93142038751284,2.53242617,-3.8442204849999992,-0.772180782291759,1.0,0.746699999999999,0.0
mp-1210275,Na6Sr6Ga2Sb8,22,2,186,735.8629009874937,4.010372691620857,33.448313681249715,3.33814065,-3.390244197272727,-0.78601259833072,1.0,0.3066,0.0
mp-1202226,Na24Ta8S32,64,3,43,1584.700551291438,3.170203955534595,24.76094611392872,0.67881633,-5.439202386875,-1.383511368308907,1.0,2.5894,0.0
mp-1210257,Na6Ti2F12,20,4,14,248.79871891141096,3.081179835188893,12.439935945570548,3.088307,-5.596689327999997,-3.256312467747123,0.0,0.154399999999999,0.0
mp-732175,Na6Ti2F16,24,3,63,315.4214732989187,2.830447620638272,13.142561387454949,-2.57636576,-5.390031232083333,-3.120741786039271,0.0,1.2639,0.0
mp-29454,Na12Tl4O8,24,3,62,406.0227290805777,4.995266574438523,16.917613711690738,2.23961249,-4.052300644999998,-1.336874567911876,0.0,1.8471,1.0
mp-1194950,Na6U12Al2F60,80,6,165,1101.4038182738182,6.314297475646336,13.767547728422729,4.00697895,-7.153828839500001,-3.830459602603448,0.0,0.251099999999999,0.0
mp-1194641,Na6U12Ti2F60,80,6,165,1093.1041483949334,6.425694760068934,13.663801854936668,3.97308057,-7.235890647000002,-3.808773505436783,0.0,0.026699999999999,0.0
mp-34842,Na6U2O8,16,3,65,215.67665855363,5.712746601323572,13.479791159601875,4.94028876,-7.119910505,-2.73135845926724,0.0,0.1241,1.0
mp-776557,Na6V4P6O24,40,4,15,497.3969666387528,3.043114264765429,12.43492416596882,2.30912405,-7.566139082249999,-2.675392726653324,0.0,1.9166,1.0
mp-1202673,Na12V12Cr8O48,80,0,230,971.533057353345,3.539938993401392,12.144163216916812,1.51221437,-7.874601169374999,-2.376675792081897,1.0,2.3608,1.0
mp-14391,Na12V4P32O92,140,0,213,1805.848734357444,2.705956824572713,12.898919531124598,1.96805563,-7.4831786027857135,-2.619294039250879,0.0,2.4538,1.0
mp-29143,Na24V8S32,64,1,114,1430.426163183347,2.304752707771497,22.3504087997398,1.47047008,-4.991795598749999,-1.2839822642672392,0.0,1.4686,0.0
mp-1029565,Na12W8N20,40,1,80,650.7235680865,5.17188334989618,16.2680892021625,1.27054264,-7.785894464,-0.6226133119137921,0.0,2.240199999999999,0.0
mp-583762,Na12W12Cl52,76,4,14,1877.65276583386,3.8253525009874094,24.705957445182364,2.04692014,-5.0825874242105264,-1.559923770217785,1.0,0.919,0.0
mp-16839,Na12W4N12,28,4,9,425.2245066625189,4.605338987100458,15.186589523661391,1.89262906,-6.603415955357142,-0.6036836980911311,1.0,1.845899999999999,0.0
mp-753301,Na4Ni5O10,19,5,2,191.4064192566492,4.731771009995959,10.07402206613943,3.25182681,-5.665120024210526,-1.257373889237748,0.0,0.517199999999999,1.0
mp-1221206,Na8Ca4Si2As8,22,4,9,556.684681877847,2.982233502787434,25.30384917626577,3.06312385,-3.716867620909091,-0.6728775268652041,1.0,0.631899999999999,0.0
mp-1221207,Na8Ca4Si2P8,22,4,9,508.601557652865,2.116287057041327,23.118252620584773,3.787586499999999,-3.993231849090909,-0.6782050303716961,1.0,1.0094,0.0
mp-556413,Na8Cd4Si6O20,38,4,15,524.7674370316156,3.550581784089792,13.809669395568832,1.07983312,-6.375613703421053,-2.531273301606171,1.0,2.750499999999999,1.0
mp-28851,Na16Cd12Se20,48,3,62,1217.4276612435087,4.495613425537107,25.36307627590644,1.87087896,-3.184862374791669,-1.040989785394668,1.0,1.0243,0.0
mp-8752,Na4Cd1P2,7,6,166,183.22344682410807,2.413614569796251,26.174778117729723,0.98877751,-2.771965502857142,-0.320845452114706,0.0,0.739499999999999,0.0
mp-561448,Na16Ce4As16O56,92,1,130,1260.3522619703597,3.982878587606918,13.699481108373472,1.802337469999999,-6.4789881596739125,-2.163519586435531,0.0,1.5424,1.0
mp-1221350,Na4Co9Mo12O48,73,5,1,1041.9962356745598,4.050341973765842,14.273921036637804,0.83531915,-7.806162753424657,-1.816881066376948,0.0,0.6292999999999991,1.0
mp-18762,Na8Co2O6,16,4,9,228.7924112829492,2.887031060845253,14.299525705184324,1.28128286,-4.882426279375,-1.464403423189655,0.0,1.1481,1.0
mp-760068,Na32Co8O32,72,5,1,1089.5161762520793,2.6201210074691232,15.132169114612212,0.42312631,-5.094283831666667,-1.506267847835249,0.0,1.2643,1.0
mp-28789,Na32Cu16S24,72,1,88,1656.5327621645015,2.528067967535544,23.00739947450697,1.59763899,-3.862014523888889,-0.975306173113025,1.0,2.0854,0.0
mp-1221197,Na4Eu1Ge2Se6,13,4,5,347.1633815334803,4.127693123224496,26.704875502575405,3.09355448,-4.745595184615384,-1.216632138044595,0.0,0.387799999999999,0.0
mp-1221181,Na4Eu1Si2Se6,13,4,5,337.4064499109615,3.808507298080854,25.95434230084319,4.33246839,-4.939007386923077,-1.28661508265998,0.0,0.9075999999999992,0.0
mp-1221196,Na4Eu1Si2Te6,13,4,5,419.3774223855023,4.219651687580137,32.259801721961715,4.43708518,-4.454300910769231,-0.9646496454244032,0.0,0.525799999999999,0.0
mp-19022,Na8Fe2O8,18,5,2,234.61482911502372,2.998147734785597,13.034157173056876,0.72451952,-5.362194069444445,-1.625666475613027,0.0,1.763199999999999,1.0
mp-28773,Na16Ga8S20,44,4,14,960.7173756956196,2.7083223977249293,21.834485811264084,1.19707451,-4.151208824318181,-1.231674915501566,0.0,2.885,0.0
mp-1221169,Na4Ge2Pb1S6,13,4,5,309.53810881552863,3.416314602913066,23.810623755040663,2.40707601,-4.384863844615385,-1.065191283116709,0.0,2.0553,0.0
mp-28355,Na8Ge4Se10,22,5,2,551.1685587068778,3.808365200068418,25.05311630485808,1.16089259,-3.932188732727271,-1.014689077021452,0.0,1.6797,0.0
mp-28107,Na8Ge4Te10,22,5,2,689.331295976232,4.216749445894306,31.333240726192365,2.563907399999999,-16.09195140590909,-0.720424225,0.0,1.0023,0.0
mp-2970,Na8Ge2O8,18,5,2,240.6118147083184,3.155237520758228,13.367323039351025,0.54023943,-5.31812012,-2.009036232279693,0.0,2.8173,1.0
mp-28292,Na32Ge8Se32,72,3,62,1996.2619059012204,3.197127007515962,27.725859804183617,0.57756531,-3.750821499583333,-1.087092957349138,0.0,1.7906,0.0
mp-643001,Na8H12Ru2,22,6,167,267.36352122821296,2.472847937591823,12.152887328555137,0.70245148,-5.84652908,-0.354535263409091,0.0,2.0349,0.0
mp-28591,Na4Hg1P2,7,6,166,181.91470785644657,3.235887092764373,25.9878154080638,1.10790413,-12.120171104285715,-0.458930900493198,0.0,0.036499999999999,0.0
mp-22937,Na4I2O1,7,1,139,170.91532597430805,3.514775083663585,24.416475139186865,1.87829796,-3.37821586857143,-1.469234532931035,1.0,2.2131,1.0
mp-28698,Na4Ir1O4,9,1,87,117.79104883184526,4.908318573891735,13.087894314649471,2.29335953,-5.3438372266666665,-1.566374858390804,1.0,0.4312,1.0
mp-1223438,Na4La31Co5I60,100,5,2,4263.074592161811,4.793768468161103,42.63074592161811,4.65843281,-4.4086997991,-1.5537903604051722,0.0,0.012599999999999,0.0
mp-1103730,Na4Mg1Ge2Se6,13,4,5,323.5354833699405,3.773932717271349,24.88734487461081,1.37602157,-3.953664710769231,-1.090674118044595,0.0,1.822099999999999,0.0
mp-1103351,Na4Mg1Si2Se6,13,4,5,305.06606980919986,3.517376320721198,23.46662075455384,1.794240139999999,-4.151749903846153,-1.16533005342921,0.0,2.7632000000000003,0.0
mp-29984,Na16Mo4O20,40,5,2,492.10786857118114,3.6158893629419833,12.302696714279527,1.45644352,-6.108547262,-2.013313437051724,0.0,2.9246,1.0
mp-559561,Na16Mo4S12O56,88,3,19,1253.992268660832,2.6912322735089163,14.249912143873091,0.95181866,-6.542438586704545,-2.092481041387146,0.0,2.7865,1.0
mp-754019,Na4Np1O5,10,1,87,127.29193177297464,5.334882840747488,12.729193177297464,3.91849348,-6.868439021,-2.562992238926725,0.0,0.6496000000000001,1.0
mp-20088,Na8Pb2O8,18,5,2,276.79393369641576,4.357290939156237,15.377440760911988,0.8149345100000001,-4.809599299999999,-1.601668832835247,1.0,1.2998,1.0
mp-1200574,Na8Pu2H14O18,42,5,2,486.586103467243,3.32396626817373,11.58538341588674,0.48231761,-6.040369208809524,-1.830720174905582,0.0,0.8335,1.0
mp-10419,Na8Re2N6,16,4,9,261.1012790769117,4.072608587539332,16.31882994230698,1.28574061,-5.758388411875,-0.404659592252155,0.0,2.4384,0.0
mp-29871,Na16Se4O20,40,5,2,479.29331930429146,3.477252293861028,11.982332982607286,1.88012653,-5.044312055250002,-1.6840520935361,0.0,1.3349,1.0
mp-1221146,Na4Si2Pb1Se6,13,4,5,338.30398054086805,4.069524871055584,26.02338311852831,4.27985779,-4.21436201,-1.067774693813825,0.0,2.0895,0.0
mp-569337,Na32Si16Te40,88,4,14,2704.060782266285,3.86204248971939,30.72796343484415,3.4978436,-3.690255678068181,-0.787160347054596,0.0,1.9301,0.0
mp-30931,Na16Si4Se16,36,3,62,932.142693894101,3.105976686090554,25.89285260816947,1.09483844,-3.912154813055555,-1.159282918043581,0.0,2.5923,0.0
mp-1221151,Na4Sn1Ge2S6,13,4,5,308.30294298753483,2.953388801539804,23.71561099904114,2.53160001,-4.374867731538462,-1.032354801962863,0.0,1.8668,0.0
mp-29626,Na8Sn6S16,30,4,15,731.4324129337376,3.199286437268478,24.381080431124587,2.2908909,-11.069347968666667,-0.884330216833332,0.0,1.650599999999999,0.0
mp-28261,Na8Sn2O6,16,4,9,262.91436281213777,3.267429852934444,16.43214767575861,1.92638575,-4.675019916249998,-1.647477668189653,0.0,1.8842,1.0
mp-9655,Na8Sn2O8,18,5,2,265.7451621958398,3.432572347750595,14.7636201219911,0.88288751,-5.099994704444444,-1.8590725945019144,0.0,2.0838,1.0
mp-29628,Na8Sn2S8,18,1,114,425.3473139845042,2.646331385484886,23.630406332472457,1.50509446,-9.046311478888889,-1.141544546805556,1.0,2.078,0.0
mp-28768,Na8Sn2Se8,18,1,114,485.4194067820355,3.6021999914389413,26.9677448212242,1.13860655,-3.7164535755555552,-1.120886811099137,1.0,1.4647,0.0
mp-28108,Na16Sn4Te16,36,3,19,1170.7008432336277,4.091099375883919,32.51946786760077,3.01241656,-16.491829346666666,-0.8616289799999991,1.0,1.0196,0.0
mp-1221154,Na8Sr4Si2As8,22,4,9,600.2006909289171,3.292140665389345,27.28184958767805,2.67677285,-3.651216724545454,-0.6641669559561131,1.0,0.5886,0.0
mp-1221153,Na8Sr4Si2P8,22,4,9,540.3597489350364,2.57629901119147,24.56180676977438,3.37252655,-8.924274480000001,-0.8033550015367961,1.0,0.9527,0.0
mp-1221156,Na8Sr4Ti2As8,22,4,9,613.1999322037116,3.3294866843127933,27.8727241910778,2.84541164,-3.988767822727272,-0.7771567826227791,0.0,1.208899999999999,0.0
mp-1221155,Na8Sr4Ti2P8,22,4,9,566.890009967281,2.571617365501011,25.76772772578549,3.29031982,-4.240679859545454,-0.758032094765636,0.0,1.3214,0.0
mp-15391,Na8Te2O10,20,5,2,240.4724300625244,4.13706110564,12.023621503126218,2.20690458,-5.198392534,-1.87339313071839,0.0,1.9814999999999992,1.0
mp-555678,Na4Ti5O12,21,6,147,233.51591589482908,3.72110954050869,11.119805518801384,2.07021066,-8.070145161904762,-3.107293959151615,0.0,2.4744,1.0
mp-680756,Na40Ti10P20O90,160,4,13,2117.424769489846,2.711603331655081,13.233904809311536,0.94907406,-7.072595668625,-2.783534966946018,0.0,2.8528,1.0
mp-505798,Na32Ti8Se32,72,4,15,1889.7224208526625,3.203227369406854,26.24614473406476,2.5521919,-4.362810558888889,-1.335474887580619,0.0,1.6617000000000002,0.0
mp-6046,Na16U4C12O44,76,6,165,944.2266568026948,3.81279034436295,12.424034957930196,0.38817123,-7.61798598473684,-2.419467002790379,0.0,2.157,1.0
mp-555988,Na8U2Cr6O28,44,5,2,671.3692947039735,3.512014689662098,15.258393061453944,-0.36840809,-7.450366587727274,-2.228144332978057,0.0,2.0333,1.0
mp-5327,Na4U1O5,10,1,87,128.71659519848131,5.289108889047823,12.871659519848132,2.17097475,-6.819793776000002,-2.6799839610517253,0.0,2.1446,1.0
mp-754829,Na8V2O8,18,5,2,242.6277493074886,2.832013295236732,13.479319405971587,2.51212672,-5.855999122222222,-2.051262099501916,0.0,1.067199999999999,1.0
mp-705037,Na32V8P16O72,128,3,61,1685.6524774210552,2.7491642129901903,13.169159979851994,2.22894854,-6.9561409315625,-2.592804351550184,1.0,1.766599999999999,1.0
mp-699658,Na32V8S24O104,168,4,14,2219.770990974931,2.675615540974507,13.21292256532697,0.8895263,-6.516938483214285,-2.174587961691296,1.0,2.6285,1.0
mp-505045,Na20In8Te24,52,3,36,1647.398029005148,4.47616247230258,31.68073132702208,2.96323327,-3.276077225576922,-0.8847859379022971,1.0,1.003699999999999,0.0
mp-1194446,Na10Ag2Ge4S14,30,4,15,694.5545408688715,2.833343572443051,23.151818028962385,1.86342929,-4.221306555333333,-1.036898938404213,0.0,1.758199999999999,0.0
mp-1210225,Na10Ag2Ge4Se14,30,4,15,809.9624915798431,3.775613549106419,26.998749719328103,1.04074617,-3.836016518333333,-0.951418009997964,1.0,1.1633,0.0
mp-24822,Na10Al6H28,44,1,128,454.5287279182615,1.5344283338340912,10.33019836177867,0.75579642,-4.172269673636364,-0.24550733465909,0.0,2.9039,0.0
mp-13998,Na40Al8O32,80,3,61,1046.3223304003511,2.614501891537602,13.07902913000439,1.30996169,-5.096013453875,-2.071411079564654,0.0,2.6242,1.0
mp-29198,Na10Au2Se24,36,4,4,970.618297398336,4.309297928417322,26.961619372176,1.736453389999999,-13.9466269075,-0.6052610313194451,0.0,1.0748,0.0
mp-760400,Na5Bi1O5,11,4,12,150.55961418912156,4.454948398909756,13.687237653556506,1.23640475,-4.878258979999999,-1.6656732319905951,0.0,0.8517999999999991,1.0
mp-757878,Na20Cu4H8O16,48,3,62,655.2403334654371,2.478575309604934,13.65084028052994,1.25752717,-4.566821115416666,-1.450988827033045,1.0,1.4867,1.0
mp-11147,Na5Cu1S1O2,9,1,123,171.9594898359751,2.342284852513859,19.10660998177501,1.11843338,-4.075473327777778,-1.315240867710728,0.0,1.5205000000000002,1.0
mp-1220860,Na10Eu2Ta2As8,22,4,9,596.5172227093627,4.161929145561566,27.114419214061943,2.55086768,-4.918743350454545,-0.596549397657263,0.0,0.249,0.0
mp-760318,Na40Fe8O32,80,3,61,1113.5711159791229,2.800937370994305,13.919638949739037,0.86051888,-5.127441568000004,-1.630394655689659,1.0,2.1683,1.0
mp-7656,Na40Ga8O32,80,3,61,1077.8470662569932,3.064815730127265,13.473088328212416,0.51599592,-4.7578564195,-1.805002025939654,0.0,2.4236,1.0
mp-16861,Na20Ge4As12,36,4,14,833.3122789024648,3.286783869326887,23.147563302846244,1.99159034,-8.950758468055556,-0.52681698,0.0,0.5043,0.0
mp-4172,Na20Ge4P12,36,4,14,768.6344426154534,2.424028940687876,21.35095673931815,2.27122384,-7.001334483055555,-0.47921122015873,0.0,1.079699999999999,0.0
mp-541236,Na20Hf4As12,36,4,14,869.1146923648507,3.960339903864099,24.14207478791252,1.74442926,-3.976150591666666,-0.5676883115996161,0.0,0.988699999999999,0.0
mp-1210180,Na5I1O6,12,4,12,145.11418382396496,3.866008393793425,12.09284865199708,1.87970329,-4.815948365,-1.6559164868247112,0.0,1.8834,1.0
mp-14493,Na40In8O32,80,3,61,1197.5016200973184,3.258833768162608,14.96877025121648,1.05316793,-4.599326989,-1.673364823356319,1.0,1.890699999999999,1.0
mp-29376,Na10In2S8,20,4,11,462.253253562268,2.572259084202261,23.1126626781134,1.27098228,-8.4750354645,-1.2210865086249991,1.0,2.0219,0.0
mp-28597,Na40In8Te32,80,3,60,2729.530223311007,3.602307690173624,34.119127791387584,2.56350401,-3.1660170165,-0.9619168955229872,1.0,1.6777000000000002,0.0
mp-1195001,Na10Li2Mo18O60,90,3,43,1287.7996460490474,3.77891201313102,14.308884956100526,0.12773122,-7.7217312574444446,-2.062459970782885,0.0,2.9755000000000003,1.0
mp-554395,Na10Li6Ti4S16,36,4,15,760.59604074269,2.130923486444718,21.12766779840805,1.2459539,-4.916998907777778,-1.509597070753512,0.0,2.2797,0.0
mp-5477,Na10Nb2O10,22,4,15,306.2207573990195,3.121864575118567,13.919125336319068,0.62323331,-6.006211448636365,-2.228964725172415,1.0,2.6375,1.0
mp-21996,Na40Ni8O32,80,3,61,1062.5577287167844,2.971021624995988,13.281971608959804,1.87589454,-4.643667379375001,-1.415608920064655,0.0,1.8963,1.0
mp-1095270,Na5Np1O6,12,4,12,152.614353093654,4.873922840589578,12.717862757804498,1.79361113,-6.560096075833331,-2.448083608803877,0.0,1.4031,1.0
mp-8253,Na5Re1O6,12,4,12,141.18862439287025,4.670962858169556,11.765718699405854,1.00830407,-6.123958835833334,-2.053585158283046,1.0,2.247999999999999,1.0
mp-18139,Na20Si4As12,36,4,14,813.178011806603,3.004236919306103,22.58827810573897,2.28652122,-8.416114727777778,-0.5586413491666681,1.0,1.1475,0.0
mp-5929,Na20Si4P12,36,4,14,746.9737772789399,2.098138154256491,20.749271591081666,2.80676326,-6.495810671944444,-0.540155518492063,0.0,1.325099999999999,0.0
mp-5248,Na20Sn4As12,36,4,14,878.403117012943,3.466428381943949,24.40008658369286,2.22651087,-3.152072980277777,-0.404457052988505,1.0,0.4045,0.0
mp-18317,Na20Sn4P12,36,4,14,813.2469628551495,2.667327849939681,22.590193412643043,2.656570089999999,-8.221056626111112,-0.490688229880952,0.0,1.3674,0.0
mp-29739,Na40Sn8Sb24,72,4,14,2163.9795956661,3.676786435300554,30.05527216202917,3.03778996,-2.982304932638889,-0.415062769516282,0.0,0.6311,0.0