material_id,composition,nsites,crystal_system,space_group,volume,density,density_atomic,efermi,energy_per_atom,formation_energy_per_atom,is_gap_direct,band_gap,is_oxide
mp-1178175,Ho4Pb4O14,22,0,227,300.21243775510874,9.472274235404443,13.646019897959489,4.79137491,-7.206019065454546,-2.546348146818181,1.0,1.1706,1.0
mp-755635,Ho4Pt4O14,22,0,227,262.3022141613473,10.534482839981916,11.922827916424875,3.74449562,-7.555180050454546,-2.466693449999999,0.0,1.506899999999999,1.0
mp-878,Ho12S18,30,4,11,702.0518684032684,6.046408249359246,23.401728946775613,3.17920689,-20.349370451333336,-2.375833436020832,1.0,1.4612999999999992,0.0
mp-9824,Ho8Se12,20,3,70,569.2317026956865,6.61308896811743,28.461585134784325,1.814991679999999,-23.9244038915,-2.184930186937501,0.0,1.315,0.0
mp-13974,Ho2Se1O2,5,6,164,84.54559492492947,8.658025318607043,16.909118984985895,3.592478449999999,-8.01235884,-3.494920356468746,0.0,2.1517,1.0
mp-3884,Ho4Sn4O14,22,0,227,278.614901156187,8.09694715508882,12.66431368891759,4.18808991,-7.741083080909092,-3.027425837727271,1.0,2.7013,1.0
mp-1189209,Ho8Te12,20,3,70,693.9285991421946,6.821455898552266,34.69642995710973,3.790564889999999,-30.0685214435,-1.6656492915,1.0,0.530799999999999,0.0
mp-1178173,Ho2Te1O2,5,1,139,93.8216655812134,8.662887368297849,18.76433311624268,4.97206579,-7.776108981999999,-3.32919161533333,0.0,0.7161999999999991,1.0
mp-1223956,Ho2Te1S2,5,3,71,147.83697694312428,5.858626524987115,29.567395388624856,2.52077362,-6.255145909999999,-2.132069118333329,0.0,1.7469,0.0
mp-1189310,Ho6Cu6Sb8,20,0,220,436.96729603962126,8.91110401213796,21.848364801981063,6.90686917,-5.0396480855,-0.7789817489999981,0.0,0.3143,0.0
mp-555509,Ho6Cu2Ge2S14,24,2,173,483.30240969501546,5.878216867549206,20.137600403958977,4.25197066,-6.000614377916666,-1.710298553541663,0.0,1.759199999999999,0.0
mp-17486,Ho6Cu2Si2S14,24,2,173,479.2007486968816,5.619747899881113,19.966697862370065,4.83144519,-6.156196909999999,-1.7990235710416642,0.0,1.822499999999999,0.0
mp-1197194,Ho24Ga16,40,1,140,952.4089457439592,8.846412073451917,23.810223643598977,3.14692053,-4.5018289105,-0.5319828224999961,1.0,0.0276,0.0
mp-1189051,Ho6Ga2S12,20,3,36,449.9437709398892,5.586780733151461,22.49718854699445,3.10224934,-6.186346966499997,-2.021217784249994,0.0,2.094099999999999,0.0
mp-769345,Ho12Re4O32,48,4,14,570.2338920430942,9.423254320987729,11.879872750897796,2.4447361,-8.807055014374999,-3.321651627499998,0.0,1.7553,1.0
mp-1106363,Ho6Sb8Au6,20,0,220,478.7768366342058,10.909386227423822,23.93884183171029,6.18477686,-36.2365951905,-0.914177678999999,0.0,0.5575999999999991,0.0
mp-1212301,Ho6Sb2O14,22,3,20,296.1203188505098,8.170870283545701,13.460014493204993,5.89074429,-8.212924027727272,-3.434945239545452,0.0,2.7558,1.0
mp-607806,Ho12Se12N4,28,4,15,669.1820964704139,7.401434629239917,23.899360588229065,2.59754629,-23.69367828214286,-2.16404069513393,1.0,1.5205000000000002,0.0
mp-1192541,Ho12Te12N4,28,4,14,782.742440450134,7.565874390394519,27.95508715893336,4.21904022,-28.067947517857142,-1.7787396112500011,1.0,1.136199999999999,0.0
mp-1154,Ho16C28,44,4,14,620.8304193180988,7.957745471521479,14.10978225722952,3.94912141,-7.832266037954543,-0.28759546454545,1.0,0.7510000000000001,0.0
mp-1212299,Ho16Cd4Ni4,24,0,216,595.8925541473844,9.260854089029504,24.82885642280769,3.49135521,-4.4729770579166654,-0.28449960291666,0.0,0.0156,0.0
mp-1212308,Ho16Mg4Ni4,24,0,216,613.3903692088112,8.042611074989367,25.55793205036713,3.4596147,-4.489972122500002,-0.18975136333333,1.0,0.036399999999999,0.0
mp-1200540,Ho32Ru8Br40,80,1,134,2405.129844055443,6.408775691237851,30.06412305069304,3.578471,-5.256772124375,-1.671786816874997,0.0,0.2507,0.0
mp-1193486,Ho8Zn10Ge12,30,3,36,601.5344335857332,7.854224704141776,20.051147786191105,3.80295354,-4.033354046333334,-0.538180510333332,0.0,0.0043,0.0
mp-1202615,Ho40Ir8Br72,120,1,88,3696.462062073666,6.23883791514992,30.803850517280548,2.47367399,-5.108525617333331,-2.004568929333329,1.0,0.730599999999999,0.0
mp-1212353,Ho12Al86Mo8,106,2,193,1861.07121729012,4.521111846265776,17.55727563481245,7.40630873,-4.691734014433963,-0.313838959339621,1.0,0.029999999999999,0.0
mp-1199465,Ho6H40N8O49,103,5,2,1020.1961669227952,3.134761411619397,9.904817154590244,-0.5714017,-6.156557250873787,-1.568702439757281,0.0,2.9414,1.0
mp-753766,Ho6Re1O12,19,6,148,251.44528640020425,9.03279999063644,13.233962442116011,3.65277012,-8.869479289473668,-3.637388602236824,0.0,0.0359,1.0
mp-1212377,Ho12Ta8Al86,106,2,193,1861.1240959129905,5.127751767795901,17.557774489745192,7.11874476,-13.186019438018867,-0.334403918572324,0.0,0.0132,0.0
mp-1212285,Ho14C4I24N2,44,5,2,1578.3925280389385,5.713430220811617,35.87255745543042,2.4744702,-5.049070434090909,-1.5369105993181802,1.0,1.261299999999999,0.0
mp-1188549,Ho7Pt1I12,20,6,148,743.451287435775,6.415773734203849,37.17256437178875,4.56741746,-4.325018258999995,-1.497866211249993,0.0,0.0819,0.0
mp-1191834,Ho16Ga6Co2,24,2,186,589.7291815159775,8.94030740984115,24.5720492298324,3.53861709,-4.813902634166666,-0.397307591874996,1.0,0.007199999999999,0.0
mp-1192267,Ho16In6Co2,24,2,186,637.175549310766,8.979710901879294,26.54898122128192,4.46754768,-4.682733211666668,-0.333368739166663,1.0,0.0032,0.0
mp-18262,Ho8Ag8S16,32,1,92,715.8671470365542,6.2523664892603374,22.37084834489232,3.04053387,-5.494452331249999,-1.565118261666663,1.0,2.0621,0.0
mp-12955,Ho4Ag4Se8,16,3,19,393.0148708206452,7.279367599243141,24.563429426290327,2.81108575,-5.04091782875,-1.43280780408854,1.0,1.271199999999999,0.0
mp-12904,Ho2Ag2Te4,8,1,113,235.9161346413421,7.432829220433802,29.48951683016776,4.36647571,-4.543874403749999,-1.112067171249997,0.0,0.8999,0.0
mp-1102733,Ho4As4S4,12,3,62,247.71388224452804,7.291132243994712,20.642823520377338,5.27483688,-6.172341378333333,-1.7036208566666642,1.0,0.0177,0.0
mp-2011092,Ho4As4S4,12,3,62,245.89602012428767,7.345034186422742,20.491335010357307,5.50088416,-20.315427240833333,-1.7741359126041631,0.0,0.468399999999999,0.0
mp-1212091,Ho4As4Se4,12,3,62,265.1439945864605,7.986598359633938,22.09533288220504,4.37259812,-22.275298508333336,-1.6418201305208342,0.0,0.2103,0.0
mp-1191115,Ho4B16Mo4,24,3,55,253.32349530756423,7.973894540802423,10.555145637815176,6.45062632,-7.657834073333333,-0.6310179636111091,0.0,0.5762,0.0
mp-976384,Ho4B16W4,24,3,55,252.3108126774896,10.319892138094003,10.512950528228734,6.53438946,-7.977559918333341,-0.598663788611117,0.0,0.2705,0.0
mp-546625,Ho1Bi2Br1O4,8,1,123,142.46529738069583,8.471310045810544,17.80816217258698,3.54824264,-6.644518402499999,-2.418701072499999,0.0,1.366499999999999,1.0
mp-549127,Ho1Bi2Cl1O4,8,1,123,136.85991564229317,8.278940385967152,17.107489455286647,3.64886018,-6.72239778625,-2.470130923125,0.0,1.370999999999999,1.0
mp-551101,Ho1Bi2I1O4,8,1,123,150.17692026497537,8.556000610459362,18.77211503312192,4.30774963,-6.53935935125,-2.32765876125,0.0,1.391099999999999,1.0
mp-977375,Ho2Br6,8,2,194,321.2850758539566,4.182730110159792,40.16063448174457,-1.656325209999999,-4.613866801250001,-2.23673703375,0.0,2.8409,0.0
mp-1191543,Ho4Cr4B16,24,3,55,232.1396064881636,7.444195377418427,9.672483603673482,6.3915491,-7.49854261375,-0.670493610694443,0.0,0.167799999999999,0.0
mp-756834,Ho4Cr4O12,20,3,62,216.86995599622568,8.113944214971221,10.843497799811283,3.55456867,-9.0456503135,-3.2267283235,0.0,2.4964,1.0
mp-19076,Ho2Cr2O8,12,1,141,155.46764169753553,6.001059832937755,12.95563680812796,1.8449463,-8.453688110833333,-2.779926285,0.0,0.296799999999999,1.0
mp-1105351,Ho2Cr2Te2O12,18,6,163,227.5004003263236,6.430804968163029,12.6389111292402,3.22534128,-7.775656423333334,-2.544345439074073,0.0,2.6338,1.0
mp-1224006,Ho2Cu2Pb2S6,12,3,36,265.0440594958999,6.664500286811917,22.087004957991656,4.68689957,-5.485938843333333,-1.348503525416664,0.0,1.599599999999999,0.0
mp-6244,Ho4Cu4Pb4Se12,24,3,62,588.2064677148177,7.594653273280197,24.508602821450737,4.27200406,-5.052669779583334,-1.23645850658854,0.0,1.1844,0.0
mp-12453,Ho4Cu4S8,16,3,62,325.6315710928154,5.968514955272175,20.351973193300964,4.07225559,-16.540727205625,-1.59119268578125,0.0,1.607299999999999,0.0
mp-24012,Ho1H1Se1,3,2,187,48.84804614782874,8.325064360643623,16.282682049276247,4.0839083,-18.537613716666662,-1.654941534270833,0.0,1.4981,0.0
mp-864657,Ho2I6,8,2,194,412.74130921683786,4.39046303278712,51.59266365210473,-0.75076398,-3.933736127500001,-1.641306799999999,0.0,2.2181,0.0
mp-510225,Ho4Mn8O20,32,3,55,345.59865596409134,6.819064983043372,10.799957998877854,3.18023919,-8.61115357968747,-2.653464195420227,0.0,1.155199999999999,1.0
mp-2899517,Ho6Mn6O18,30,3,36,368.7595580414855,7.237283256019215,12.291985268049515,4.38638456,-8.789214622000001,-3.068499067586207,1.0,0.376599999999999,1.0
mp-1193901,Ho4Mo4Br4O16,28,5,2,503.665412641903,5.337984855438695,17.988050451496537,1.50266809,-7.858712898571428,-2.591267165714285,0.0,1.8564,1.0
mp-558005,Ho2Mo2Cl2O8,14,4,12,247.4106932266188,4.836710623701364,17.672192373329914,0.47391304,-7.982477398571429,-2.684803627857142,0.0,2.7162,1.0
mp-883,Ho1N1,2,0,225,28.612982912956948,10.384513669018196,14.306491456478474,3.87231936,-23.06471171,-2.059664416874998,0.0,0.087499999999999,0.0
mp-1018139,Ho1Ni1Bi1,3,0,216,65.98018984860511,10.887450358667028,21.993396616201704,6.09030628,-5.417714986666667,-0.661764834999998,0.0,0.1941,0.0
mp-4174,Ho1Ni1Sb1,3,0,216,62.23642711833167,9.215232727566152,20.74547570611056,6.53564665,-5.798447013333335,-0.962841218333332,0.0,0.291999999999999,0.0
mp-1225006,Ho2P4H10O20,36,5,2,442.57991094034736,2.940867460887713,12.293886415009649,1.46237186,-6.781074974722222,-2.231960043640872,0.0,2.1728,1.0
mp-9851,Ho2P10,12,4,11,241.56909478816272,4.396580194129317,20.13075789901356,5.5555663,-13.611999475,-0.630045229146825,0.0,0.1063,0.0
mp-1190574,Ho8P8S8,24,3,62,469.8890472747517,6.444952379008631,19.57871030311465,5.38566451,-18.41887515375,-1.779402050679562,0.0,0.293999999999999,0.0
mp-18532,Ho8P8S32,48,1,142,1084.44808227161,3.970957252444709,22.59266838065854,3.01666661,-13.536007138541663,-1.198771045912695,0.0,2.173,0.0
mp-1223799,Ho1Pa1O4,6,1,123,76.338706083066,10.005250263093178,12.723117680511,5.21682314,-9.842689796666669,-4.187053019166665,0.0,2.4203,1.0
mp-17651,Ho4Pt4F28,36,4,14,494.8386727151315,6.617518177549906,13.745518686531431,-1.11953411,-14.62073598138889,-2.815040818611111,0.0,2.3045,0.0
mp-1212108,Ho4Rh4O12,20,3,62,225.4575253306886,9.304718979809335,11.27287626653443,4.46925832,-7.948614022000005,-2.587439952000004,1.0,0.9605999999999992,1.0
mp-10931,Ho2S2F2,6,1,129,95.13320942562316,7.5402904554460175,15.855534904270527,4.23545661,-18.013631415,-3.332841099270832,1.0,1.299599999999999,0.0
mp-1018731,Ho2S2I2,6,3,59,218.69021160815248,4.918814161854199,36.44836860135874,0.69429705,-5.523699721666667,-2.103682505833331,1.0,2.7205999999999992,0.0
mp-769118,Ho4S4O4,12,3,64,194.7541534928665,7.264256955679934,16.229512791072214,5.13140068,-7.589274691666667,-3.027941345833331,0.0,1.190999999999999,1.0
mp-1212288,Ho4Sb4O16,24,5,2,296.3676461374059,7.859575752404595,12.348651922391914,3.51868189,-7.622795643749999,-2.869708189583331,0.0,2.3323,1.0
mp-1095263,Ho4Se4F4,12,3,62,252.2920341559646,6.9211379820629695,21.02433617966372,2.09836265,-19.9865642175,-3.213586852187499,0.0,2.8304,0.0
mp-30390,Ho1Sn1Au1,3,0,216,73.89646865958002,10.79979232212103,24.632156219860008,5.53604028,-4.805832080000002,-0.8454543066666661,0.0,0.022,0.0
mp-558875,Ho4Te8Cl4O20,36,5,2,618.7684955738198,5.749174697961192,17.188013765939438,3.01113721,-6.410302852777778,-2.246676288703702,1.0,2.9145000000000003,1.0
mp-1212131,Ho2Tl2W4O16,24,4,15,330.89672244910344,8.681547022595037,13.78736343537931,5.23360995,-8.5452037375,-2.506112064027777,0.0,2.9276,1.0
mp-1007665,Ho1Tl1S2,4,6,166,103.44488421855114,6.957812071768453,25.861221054637785,3.83051319,-5.542250742499991,-1.730783063333324,0.0,1.4885000000000002,0.0
mp-569178,Ho1Tl1Se2,4,6,166,115.24923759424736,7.5965103241484595,28.81230939856184,3.48438652,-30.27675016,-1.605807920781245,0.0,1.2588,0.0
mp-1007663,Ho1Tl1Te2,4,6,166,138.3942710892306,7.49329618539741,34.59856777230765,4.5883009900000005,-4.564459187499992,-1.250518345416658,0.0,0.7305,0.0
mp-18734,Ho2V2O8,12,1,141,157.7959242827916,5.890318239447263,13.149660356899298,0.70177465,-8.787987294166667,-3.209082368333334,0.0,2.9805,1.0
mp-23261,I8O20,28,4,14,429.70673644895584,5.159777653138838,15.34666915889128,2.22735146,-4.726152101785713,-0.7564620653571411,0.0,2.7278,1.0
mp-27639,I2Br2,4,3,63,161.4534882856858,4.254024454784363,40.36337207142145,-0.50101216,-1.934361819999999,-0.353882244999999,0.0,1.402299999999999,0.0
mp-567998,I8Cl8,16,4,14,599.2621717471073,3.599104824565644,37.45388573419421,-0.32176573,-2.150815592499999,-0.464540954999999,0.0,1.852199999999999,0.0
mp-1546049,I2Cl6,8,5,2,256.8661311901365,3.015914188071446,32.108266398767064,0.95809141,-10.949613095,-0.195612978749998,0.0,1.5693,0.0
mp-27729,I2Cl6,8,5,2,312.4853440274789,2.479112138530346,39.06066800343486,-0.6928252300000001,-2.431760408749999,-0.66435476,0.0,1.795999999999999,0.0
mp-27988,I2F14,16,3,41,295.29125934113586,2.922964710438197,18.45570370882099,-3.02993017,-3.557248483749999,-1.692126078749999,0.0,1.4397,0.0
mp-29946,I4O8F4,16,3,19,233.3798096751672,5.063208831531403,14.586238104697951,1.38525643,-4.468860322499999,-1.135413572499999,0.0,2.8952,1.0
mp-1204264,In24Ga8Ir4O30,66,3,34,1043.635075011639,7.259070825246485,15.8126526516915,5.20431417,-5.805154673787879,-1.650040963333333,0.0,1.4187,1.0
mp-1029677,In4C6N12,22,6,167,311.38949646709045,3.729761605017047,14.154068021231383,4.21406842,-7.69485469590909,-0.128126474621211,1.0,2.2323,0.0
mp-27753,In8P12S36,56,4,14,1319.2539412959757,3.076968305760182,23.558106094570995,2.684057,-10.799353723571429,-0.479467906731504,0.0,1.4292999999999991,0.0
mp-686581,In8P12Se36,56,5,2,1511.7390123730456,4.539578440103723,26.99533950666153,2.36207086,-14.709081817857143,-0.354263833963648,1.0,0.9617999999999992,0.0
mp-1212349,In8Se12O48,68,4,14,1005.3104916617068,4.350813394148277,14.78397781855451,0.04204422,-5.80636152617647,-1.372148939139092,0.0,2.3097,1.0
mp-1224076,In4Ag2S6Cl2,14,6,166,337.361458692242,4.618462104718493,24.09724704944585,3.33344634,-4.109675343571429,-0.877545819642856,1.0,1.087999999999999,0.0
mp-650840,In8Bi16Pb16S52,92,3,55,2383.798806499057,6.439876046022363,25.91085659238105,4.86454725,-4.640772596195652,-0.739566188188404,1.0,1.200399999999999,0.0
mp-685014,In32Br48,80,3,19,2978.489589541353,4.186662622920037,37.23111986926691,2.56267047,-3.154800182875,-1.068962764541666,0.0,2.0644,0.0
mp-1200516,In4Cu6Se12O36,58,4,14,864.8316579856568,4.539139341404863,14.910890654925115,2.07961296,-5.709191300689656,-1.300407354048133,0.0,0.389499999999999,1.0
mp-1212052,In2Hg5Te8,15,1,119,536.1373585672628,6.979247809048292,35.74249057115085,2.58740157,-33.31502541933333,-0.292758229166664,1.0,0.0053,0.0
mp-1201574,In4Hg12P6Cl18,40,4,4,1145.4643038324557,5.349767734074973,28.636607595811387,0.28848803,-2.91563942125,-0.902655146863096,0.0,2.1903,0.0
mp-22356,In4Hg2S8,14,0,227,328.370782269334,5.648418624459176,23.455055876381,3.4541513,-3.928488583571428,-0.7311374701190471,0.0,0.3467,0.0
mp-20731,In2Hg1Se4,7,1,82,206.27363101993924,6.005962725997882,29.467661574277034,2.07805823,-22.26875125142857,-0.587147221964284,1.0,0.6337,0.0
mp-19765,In2Hg1Te4,7,1,82,254.09628894446195,6.147064274524243,36.29946984920885,3.41245074,-28.43250032857143,-0.404802539642856,1.0,0.5295000000000001,0.0
mp-22598,In16O24,40,0,206,526.9797159082178,6.998712419580601,13.174492897705443,5.1450695,-6.066513488,-1.994067387666665,0.0,0.6305000000000001,1.0
mp-31232,In4P2O10,16,5,2,200.6127675305557,5.63863249195226,12.53829797065973,4.78161004,-6.741069883750001,-2.281866629122024,0.0,2.073399999999999,1.0
mp-755116,In4Pt4O14,22,0,227,250.83654534676828,9.689035982776284,11.401661152125827,7.48663874,-6.273488469545456,-1.5192756366666682,1.0,2.196199999999999,1.0
mp-22216,In16S24,40,1,141,961.988411199058,4.499472952568761,24.04971027997645,4.35222947,-14.595410443,-0.742974841687498,0.0,0.8856,0.0
mp-1199125,In16Se16O56,88,3,56,1222.517208747931,5.428309875751703,13.892241008499212,2.69648893,-5.873388262727272,-1.5873975830018932,0.0,2.8578,1.0
mp-612740,In12Se18,30,2,169,895.3792135737424,5.191105833931657,29.84597378579141,2.52989165,-18.305059758333336,-0.686687467770832,1.0,0.9903,0.0
mp-1197742,In12Te30,42,4,15,1558.303626706225,5.54735334846334,37.10246730252917,4.08444142,-24.93354062857143,-0.327354584285715,0.0,0.8515,0.0
mp-504908,In6Te3O18,27,6,150,334.23675145877587,6.755182694579025,12.379138942917624,4.77505517,-6.082095763333334,-1.821049162222222,0.0,1.016599999999999,1.0
mp-607450,In12Ru4,16,1,136,361.3033973904095,8.190457243982019,22.5814623369006,7.304156,-23.52604955625,-0.235972947500002,0.0,0.229,0.0
mp-568493,In12Sn4I20,36,4,14,1414.3112412067824,5.155162495896649,39.28642336685507,3.01930286,-2.897368275,-0.685462034999999,1.0,2.0965,0.0
mp-1212594,In12Te12Br4,28,3,62,1020.8424888286684,5.251808801401379,36.45866031530958,3.80535465,-3.459105703928571,-0.69562206892857,1.0,1.304199999999999,0.0
mp-616327,In12Te12I4,28,3,62,1075.2695278328158,5.276308764597717,38.40248313688628,3.50323113,-3.355854763571431,-0.608504545714287,0.0,1.1004,0.0
mp-1200791,In8As10Br6O24,48,5,2,947.8780429687968,4.434226571834049,19.7474592285166,3.9932477,-5.812924793125,-1.701521488923611,0.0,2.987999999999999,1.0
mp-556528,In32Ge8S32,72,0,205,1862.661079869232,4.708280678747705,25.870292775961552,3.69491173,-4.255922301666666,-0.6766821796296271,1.0,1.0696,0.0
mp-646878,In32Sn8S32,72,0,205,1968.069882096279,4.767076381351161,27.334303918003872,3.7761761,-16.99789162625,-0.642275889722223,1.0,1.176,0.0
mp-617281,In16Te12,28,3,58,928.9629253869977,6.020879476142618,33.17724733524991,5.24536256,-24.189687638214284,-0.394539859642853,0.0,0.122399999999999,0.0
mp-36751,In5Ag1S8,14,0,216,322.33703641936035,4.8346281630045045,23.02407402995431,4.25201221,-14.883376320714286,-0.7027461991071411,0.0,0.103499999999999,0.0
mp-1224092,In5Ag1Se8,14,4,5,408.1637086839416,5.34429569329304,29.154550620281537,2.95504023,-18.413054989285715,-0.6458184969642871,1.0,0.2236,0.0
mp-1224268,In5Ag1Te8,14,4,5,505.11749099829217,5.597700658683101,36.0798207855923,3.860663289999999,-24.54976464357143,-0.436434391785715,1.0,0.178799999999999,0.0
mp-28112,In10Cl18,28,6,167,790.0828490560066,3.754387779129696,28.21724460914309,0.99539534,-13.139569971428571,-1.120648401607141,0.0,2.9777,0.0
mp-1212167,In5Cu1Se8,14,1,111,394.8336948311549,5.338320496587291,28.20240677365392,3.35354995,-17.667153848571427,-0.650566009464284,0.0,0.4548,0.0
mp-1224528,In5Cu1Te8,14,4,5,489.9238850859216,5.621072683510553,34.99456322042297,4.30784433,-23.795914322142856,-0.433232723571425,1.0,0.1415,0.0
mp-510347,In10S10Br2,22,3,31,546.9174159192647,4.944836177512608,24.85988254178476,4.66913744,-4.105249062272727,-0.8211933268939371,0.0,1.1148999999999991,0.0
mp-31263,In10S10Cl2,22,4,11,537.2844178879159,4.758730562671548,24.42201899490527,4.60558039,-4.163969945909091,-0.8606781864393931,0.0,1.2286,0.0
mp-21084,In6Ga2Pt1O8,17,0,225,262.5503984355064,7.282410625059173,15.444141084441553,5.3180787,-5.790745937058823,-1.775095592058822,0.0,0.567199999999999,1.0
mp-22186,In6Ge2Pt1O9,18,0,225,268.49979127660924,7.256076496647469,14.916655070922737,5.45877657,-5.996619478888889,-1.751959449166666,0.0,1.3445,1.0
mp-1224649,In12Te20Pb2,34,4,5,1291.3789747231638,5.58607544566475,37.98173455068129,3.71201815,-26.69727671,-0.466163798823532,0.0,0.9293,0.0
mp-28730,In28Cl36,64,0,205,1830.067682342686,4.075167849986771,28.59480753660447,2.17353277,-14.36145927421875,-1.022579103125,1.0,2.1915,0.0
mp-558992,In7Ge1Ir1O8,17,0,216,273.6630975407977,7.260623975966256,16.097829267105748,5.72547081,-5.899411175294118,-1.642977864803921,0.0,0.410299999999999,1.0
mp-669311,In14Te20,34,6,155,1289.828592026953,5.354922804737431,37.93613505961626,3.87501785,-24.707249424117645,-0.458874379411765,0.0,0.8223,0.0