material_id,composition,nsites,crystal_system,space_group,volume,density,density_atomic,efermi,energy_per_atom,formation_energy_per_atom,is_gap_direct,band_gap,is_oxide
mp-1190093,Ba4Nd2In2Se10,18,3,36,567.780586129152,5.431090137817126,31.543365896064,2.35801573,-5.081087437222222,-1.876106498987268,1.0,1.0692,0.0
mp-6167,Ba2Nd1Nb1O6,10,4,12,163.76848158667022,6.162807452590849,16.376848158667023,1.93502928,-8.213877411,-3.374360572749999,0.0,2.987299999999999,1.0
mp-6200,Ba2Nd1Ru1O6,10,4,12,158.384067237913,6.45790732991012,15.8384067237913,3.04547693,-7.518524293,-2.76169770475,1.0,0.1501,1.0
mp-1205576,Ba2Nd1U1O6,10,0,225,181.0218526237128,6.906653706221505,18.10218526237128,5.93089502,-8.517463295,-3.558935959749999,0.0,0.897999999999999,1.0
mp-1519207,Ba8Nd4W4O24,40,0,201,653.0273657884571,7.107037212128341,16.325684144711428,3.41807564,-8.177603665000001,-3.052404307750001,0.0,1.7938,1.0
mp-552567,Ba4Ni2Mo2O12,20,0,225,274.118123503266,6.364075894031199,13.705906175163298,3.09202529,-7.4644024,-2.44925213,0.0,2.3514,1.0
mp-1105535,Ba4P14Br2,20,4,11,529.0135016575393,3.587013943072334,26.45067508287697,3.46635311,-5.169781860999999,-0.8314607517499971,0.0,1.6528,0.0
mp-1188687,Ba4P14I2,20,4,11,549.3937612870311,3.738067638182178,27.469688064351555,3.65754949,-5.0824477645,-0.755420047249999,0.0,1.766299999999999,0.0
mp-27869,Ba2P1Cl1,4,6,166,143.76163475300905,3.939701514522754,35.94040868825226,2.04854699,-4.592919590000001,-1.8174280386607151,1.0,1.2602,0.0
mp-21246,Ba8Pb4,12,3,62,550.3182284324002,5.815816013775842,45.859852369366685,3.04627676,-3.058147193333331,-0.54128154333333,0.0,0.028799999999999,0.0
mp-20098,Ba2Pb1O4,7,1,139,125.83651068209676,7.203059759468319,17.976644383156682,2.40060852,-6.275102857142855,-2.3690398614285693,0.0,1.2232,1.0
mp-29794,Ba4Pd2F12,18,3,64,331.3143508352278,4.962500456094521,18.40635282417932,-0.21570761,-5.570861672222212,-3.29297878999999,0.0,1.7554,0.0
mp-1214573,Ba2Pr1Bi1O6,10,4,12,175.08848625034892,6.833586096013359,17.508848625034894,2.11747627,-6.967153613000001,-2.746031445166667,0.0,1.759999999999999,1.0
mp-10344,Ba4Pr2Nb2O12,20,4,14,330.69680647059783,6.070435400314897,16.53484032352989,1.80893898,-8.196665588,-3.354416347166667,0.0,2.9791,1.0
mp-6183,Ba4Pr2Ru2O12,20,4,12,310.71604751091206,6.548054524182577,15.535802375545604,3.08418499,-7.5009498730000015,-2.741390882166667,1.0,0.1636,1.0
mp-1207268,Ba2Pu1Pb1O6,10,0,225,178.81093394588905,7.632165807678294,17.881093394588905,5.71694367,-7.940213819,-2.742584272874998,0.0,0.437999999999999,1.0
mp-1207069,Ba2Pu1Zn1O6,10,0,225,150.76153623030845,7.49040656884427,15.076153623030844,4.48643199,-7.816051009000001,-2.863711808874998,0.0,0.6585000000000001,1.0
mp-14406,Ba4Re12S22,38,6,167,799.0640270175059,7.250970194048355,21.028000710987,4.77397301,-7.698613939210523,-1.16974076197368,0.0,1.338499999999999,0.0
mp-765493,Ba8Sb8O20,36,3,62,759.220985713551,5.233186820164893,21.089471825376418,2.14804408,-6.582084708055557,-2.4892227763888912,1.0,2.5904,1.0
mp-16922,Ba16Sb24,40,4,14,1545.91103268568,5.499076645824872,38.647775817142005,4.0194902,-4.207347111249999,-0.962356391249998,0.0,0.3248,0.0
mp-755950,Ba4Sc4O10,18,3,55,285.1274423869106,5.178133192863862,15.84041346593948,2.1360717,-8.089964893888888,-3.507443436666667,0.0,2.851399999999999,1.0
mp-1228350,Ba2Sc1Cu1O4,8,1,123,140.95150644465298,5.267881799723464,17.618938305581622,4.43519259,-7.13764626375,-2.879962554375,0.0,2.0282,1.0
mp-1206644,Ba2Sc1Nb1O6,10,0,225,142.3451920343536,5.932094922631067,14.23451920343536,2.56760146,-8.472857685,-3.4769086795,1.0,2.5719000000000003,1.0
mp-1206763,Ba2Sc1U1O6,10,0,225,154.91712731623895,7.006241596651332,15.491712731623895,5.51146835,-8.790717358,-3.675757855499999,0.0,0.8326000000000001,1.0
mp-9867,Ba8Si12Ag4,24,3,70,643.8364330303909,4.815535294630799,26.82651804293296,4.01956252,-4.261329799166664,-0.435189524444441,0.0,0.051099999999999,0.0
mp-9711,Ba4Si10N16,30,3,31,380.09679578091016,4.60581850014143,12.669893192697003,5.58122975,-7.851508200666668,-1.340124068000002,0.0,2.881599999999999,0.0
mp-14447,Ba4Si2Se8,14,4,11,436.32331212121846,4.708322461865282,31.16595086580132,1.943804179999999,-5.045790029285712,-1.724802340624997,1.0,2.278399999999999,0.0
mp-14448,Ba4Si2Te8,14,4,11,539.9354717675992,5.001523244713841,38.56681941197137,3.45201134,-4.422383472142859,-1.3028846888095251,0.0,1.1029,0.0
mp-1520422,Ba8Sm4Bi4O24,40,0,201,665.6043008029156,7.284677939708874,16.640107520072892,2.18346958,-6.993913180249999,-2.780479544749999,1.0,2.4961,1.0
mp-1189376,Ba4Sm2Ga2Se10,18,5,2,557.0061959290869,5.303750480629185,30.94478866272705,1.93707802,-5.137300234444444,-1.907945853802083,0.0,1.7080000000000002,0.0
mp-1095110,Ba2Sm1Mo1O6,10,1,87,159.77524517029462,6.411945982386548,15.977524517029462,3.54262786,-7.92697244,-3.0179772245,1.0,0.9085,1.0
mp-1520939,Ba8Sm4Nb4O24,40,0,201,645.3543490019397,6.318592558694997,16.13385872504849,1.91729423,-8.231185216750001,-3.396624508250001,1.0,2.907499999999999,1.0
mp-1080470,Ba2Sm1Os1O6,10,0,225,156.66156544095182,7.538814428541912,15.666156544095182,3.7837444,-7.771486339000001,-2.8243193915,1.0,0.0705,1.0
mp-1207130,Ba2Sm1U1O6,10,0,225,177.06167677682004,7.118504976821244,17.706167677682004,5.08069033,-8.548967045000001,-3.5953958395,0.0,0.8488999999999991,1.0
mp-1517191,Ba8Sm4W4O24,40,0,201,641.8071344212732,7.294600278097761,16.04517836053183,3.49347323,-8.2064719705,-3.086228743,0.0,1.7704,1.0
mp-867912,Ba2Sn1Hg1,4,0,225,152.51006977830662,6.467007865100508,38.127517444576654,3.1828683,-2.671009042499999,-0.6317105993750011,0.0,0.0374,0.0
mp-3359,Ba2Sn1O4,7,1,139,116.58253492892035,6.514413199418974,16.65464784698862,2.99817658,-6.673725518571429,-2.725244696428571,0.0,2.442199999999999,1.0
mp-17918,Ba8Sn4S12F8,32,3,62,775.50025259962,4.518513170832694,24.234382893738125,2.16027833,-5.492273387187501,-2.480985238749999,1.0,2.4412000000000003,0.0
mp-541832,Ba8Sn4S16,28,4,14,830.417457717026,4.172248654104369,29.65776634703664,2.43878638,-5.189203557857141,-1.703352128571426,1.0,1.955099999999999,0.0
mp-17805,Ba8Sn4Se12F8,32,3,62,857.7474721870659,5.174669705964397,26.80460850584581,2.05826365,-5.1965910978125,-2.426220983066406,1.0,2.0002,0.0
mp-1192595,Ba8Sn4Se16,28,4,14,933.839719250766,5.044381488223019,33.35141854467021,3.36633921,-4.752102440714286,-1.633364205625,1.0,1.264599999999999,0.0
mp-31307,Ba32Sn16Se80,128,3,19,4080.102686427927,5.132330094499807,31.875802237718176,2.09308325,-4.6776841890625,-1.5117992986523432,0.0,1.0872,0.0
mp-1523293,Ba2Sr1Se1O6,10,0,225,152.5457178263168,5.848030870200168,15.25457178263168,2.66968517,-6.367159934,-2.495754386234375,1.0,2.3123,1.0
mp-14552,Ba4Sr2U2O12,20,4,14,347.77879236140313,6.649239296340392,17.388939618070157,2.27673914,-8.160248024000001,-3.509292623,0.0,2.2855,1.0
mp-770239,Ba4Ta4O14,22,3,63,328.10752679342824,7.576718264634887,14.913978490610374,1.5818994,-9.095031190454286,-3.439801008605799,1.0,2.9471,1.0
mp-6238,Ba2Ta6Te2O21,31,4,12,469.3288613207878,6.90473115932109,15.139640687767349,1.6669832800000002,-9.049182787741936,-3.073914786849462,0.0,2.8259,1.0
mp-545544,Ba2Ta1Bi1O6,10,4,12,162.5388419199191,7.770269533391349,16.253884191991908,3.72050717,-7.878894665999999,-2.950626889733333,0.0,2.536299999999999,1.0
mp-31630,Ba8Ta4Cr4O24,40,2,194,561.5493819657122,7.139475747345083,14.038734549142806,5.28611703,-8.672479308749999,-3.167910216483332,0.0,2.2009,1.0
mp-1205671,Ba4Ta2Fe2O12,20,0,225,275.90151133954373,7.311908458103994,13.795075566977186,2.79451208,-8.3924803525,-3.006213886233333,1.0,1.862299999999999,1.0
mp-17400,Ba8Ta4N12,24,4,15,493.7499210165016,6.694245025803071,20.57291337568757,2.38042326,-8.038706007499998,-1.252087564555554,0.0,2.0155,0.0
mp-1205650,Ba2Ta1Tl1O6,10,0,225,155.14504815596007,8.09137618081153,15.514504815596007,2.78579734,-7.591215664000001,-2.814804107066668,0.0,2.241,1.0
mp-552191,Ba2Tb1Bi1O6,10,4,12,166.10410357579744,7.383329571945535,16.610410357579745,2.30736602,-7.031945858999999,-2.826584474666666,0.0,1.7302,1.0
mp-6254,Ba2Tb1Nb1O6,10,1,87,157.18446770642552,6.576068934851411,15.718446770642553,1.98916863,-8.277995374,-3.451506916666666,1.0,2.9923,1.0
mp-1214561,Ba2Tb1W1O6,10,4,12,156.3362788056158,7.577605995571289,15.63362788056158,3.7181818,-8.252879218,-3.140708241666666,0.0,1.6795,1.0
mp-1078191,Ba4Te2O2,8,1,129,263.2618769603321,5.276313596616395,32.90773462004151,2.00055659,-5.42122402875,-2.438919834166666,1.0,1.783,1.0
mp-1078630,Ba2Th1Cu2S5,10,4,12,242.07254521759188,5.447330328541422,24.20725452175919,4.34596161,-5.819331845,-1.805129914249999,0.0,0.9,0.0
mp-1078405,Ba2Th1Cu2Se5,10,4,12,272.77735254430667,6.261531608034104,27.277735254430667,3.84830748,-5.36443452,-1.6714566341718742,0.0,0.7546,0.0
mp-1189897,Ba4Th2S12,18,1,137,495.5714916064818,4.684906581797498,27.531749533693432,3.34037603,-5.992021996666665,-1.982914714999997,0.0,1.3091,0.0
mp-17908,Ba8Ti4S16,28,3,62,788.5411101953788,3.797085282189267,28.16218250697781,2.03234328,-6.139637804285712,-2.098654923333331,1.0,2.096799999999999,0.0
mp-757586,Ba4Tl2H14O14,34,4,15,420.1328948212674,4.72778794840014,12.356849847684336,0.22102508,-5.52299943617647,-1.722333900710784,0.0,2.4953,1.0
mp-18327,Ba8Tl8O20,36,3,62,667.9539936951411,7.5914494764356,18.55427760264281,2.61282051,-5.667048698055554,-1.964748793796296,1.0,0.6503999999999991,1.0
mp-12642,Ba2Tm1Nb1O6,10,0,225,153.40047852113267,6.846627913372658,15.340047852113267,2.00990138,-8.303384774,-3.4924325310000013,1.0,2.8502,1.0
mp-12729,Ba2Tm1Ru1O6,10,0,225,147.5468271009395,7.210131380016731,14.75468271009395,3.15218947,-7.604828262,-2.876566269,1.0,0.0645,1.0
mp-1196334,Ba16U8As16O80,120,4,14,2126.0611131144874,5.139369766161864,17.717175942620727,0.67954923,-7.741559468916667,-2.811611801916667,0.0,2.2615,1.0
mp-1192547,Ba4U2P4O20,30,5,2,487.3477562489061,5.00616882418919,16.24492520829687,1.40792544,-8.365574897333333,-3.33624709795238,0.0,2.1977,1.0
mp-583034,Ba4U4O14,22,3,74,383.0698231961897,7.479366002316607,17.412264690735892,5.17006327,-9.232188860454546,-3.681598229999999,0.0,0.5051,1.0
mp-1079615,Ba2U1Cd1O6,10,0,225,167.78130963889217,7.136662795628484,16.778130963889218,2.93023729,-7.684070312,-3.106356700999999,1.0,1.8464,1.0
mp-1205611,Ba2U1Cr1O6,10,0,225,149.16834024125487,7.354625833287631,14.916834024125489,5.55244755,-8.729495519,-3.282478179999999,0.0,0.9356999999999992,1.0
mp-504699,Ba2U1Fe1O6,10,0,225,150.93698106110466,7.310790037689211,15.093698106110466,5.54092258,-8.438482202,-3.109767488999999,0.0,0.5156000000000001,1.0
mp-1205569,Ba2U1In1O6,10,0,225,159.01642183249504,7.555166529281728,15.901642183249503,6.13268779,-7.931882178999996,-3.174252212666661,0.0,0.6779000000000001,1.0
mp-19852,Ba2U1Mn1O6,10,0,225,157.65410970512076,6.989748287008771,15.765410970512075,4.90025296,-8.658413126000001,-3.260499004793104,0.0,0.0613,1.0
mp-19093,Ba2U1Ni1O6,10,0,225,150.17182867549965,7.379536273293804,15.017182867549966,3.77002273,-8.14418164,-3.084455379999998,0.0,1.6246,1.0
mp-1078725,Ba2U1Zn1O6,10,0,225,153.53428451999207,7.290553875916997,15.353428451999209,3.20535407,-7.784434182,-3.176747228999998,0.0,1.786299999999999,1.0
mp-19179,Ba4V2Si4O16,26,1,100,381.1140643570639,4.442130567573947,14.658233244502458,2.39014951,-8.084068993846126,-3.210516682307664,0.0,2.6343,1.0
mp-1228885,Ba2V2Cu1F12,17,5,1,244.42262214064465,4.538639234496117,14.377801302390862,1.3968418,-6.212988603529412,-3.326447592352941,0.0,0.7418,0.0
mp-1192628,Ba4V6H2O18,30,4,11,412.7608288020403,4.6061886956027855,13.758694293401344,1.57658423,-7.9849936626666675,-2.717228091083334,0.0,1.9502,1.0
mp-558221,Ba8V16Cd12O60,96,3,19,1482.799403080236,4.728726215509642,15.445827115419126,1.15693026,-7.290355701979166,-2.403979876770833,0.0,2.9086,1.0
mp-1214695,Ba2V1Cu2F12,17,5,2,240.40400932998824,4.701570370897792,14.14141231352872,0.70421424,-5.62936114,-3.036037740588236,0.0,0.6976000000000001,0.0
mp-17696,Ba8V4N12,24,3,64,450.3007961803385,5.422509313504541,18.76253317418077,2.90247321,-7.539652838750001,-1.216871307916668,1.0,1.3876,0.0
mp-19096,Ba8V4O16,28,4,14,491.4424563166304,5.265597665098665,17.551516297022513,3.10416825,-7.604159596071427,-2.930773886071427,0.0,1.5455,1.0
mp-554810,Ba8V4P8O36,56,4,15,896.9414123205983,3.936216916269468,16.016810934296398,1.46240747,-7.955447841071428,-3.077986980663265,0.0,2.5501,1.0
mp-1104423,Ba2Y1Ag5S6,14,4,12,334.2761988511147,5.4409295425923965,23.876871346508192,4.2642698,-4.768525960714285,-1.240534019523808,1.0,1.365799999999999,0.0
mp-1523166,Ba8Y4Bi4O24,40,0,201,663.1752385201758,6.69585449092498,16.579380963004393,2.35470647,-7.2033602995,-2.8108761275000003,1.0,1.758499999999999,1.0
mp-1205054,Ba8Y4Co4O20,36,4,14,599.2920695123111,5.569266758220975,16.64700193089753,3.43731181,-7.499802262777779,-2.808661915555556,1.0,1.5617,1.0
mp-1204162,Ba8Y4Fe4O20,36,4,14,626.7424128035217,5.29261313685681,17.409511466764492,1.67107105,-7.766158482222222,-2.926506524999999,0.0,2.8847,1.0
mp-7251,Ba2Y1Nb1O6,10,0,225,157.07020714159697,5.8406097289002,15.707020714159697,2.06677558,-8.458305763,-3.444694518,1.0,2.8514,1.0
mp-1078303,Ba2Y1Os1O6,10,0,225,151.77042848310484,7.109391887792084,15.177042848310483,3.93695308,-7.988923187999999,-2.862705703999999,1.0,0.055099999999999,1.0
mp-6428,Ba2Y1Ru1O6,10,0,225,151.041477102345,6.163484413328773,15.1041477102345,3.19954739,-7.76203541,-2.831114415,1.0,0.0903,1.0
mp-1205713,Ba2Y1U1O6,10,0,225,171.72601799832464,6.745439182498907,17.172601799832464,5.31116336,-8.775486307,-3.642864564999999,0.0,0.8651999999999991,1.0
mp-1520624,Ba8Y4W4O24,40,0,201,619.8072903524679,6.894947026656483,15.4951822588117,3.57952954,-8.42614422475,-3.12685046075,0.0,1.7928000000000002,1.0
mp-1205934,Ba2Yb1Mo1O6,10,0,225,144.74267722017825,7.3380656471436,14.474267722017824,2.13157746,-18.259440316000003,-3.117975154500001,0.0,2.2435,1.0
mp-1205759,Ba2Yb1U1O6,10,0,225,162.76185228514666,7.97530523980806,16.276185228514667,2.60857909,-24.149024157,-3.620553277000001,0.0,2.1684,1.0
mp-1078636,Ba4Zn2As4,10,3,72,310.35861726671953,5.242376649528831,31.03586172667196,2.56999806,-3.833403321,-0.94581561,0.0,0.6404000000000001,0.0
mp-1079130,Ba4Zn2Bi4,10,3,72,384.3210667125493,6.550398832307796,38.432106671254935,3.0773238,-3.316398849999996,-0.740846427999996,0.0,0.082399999999999,0.0
mp-1206097,Ba2Zn1Mo1O6,10,0,225,139.90959478307295,6.314118688410634,13.990959478307294,2.41635175,-7.103415072,-2.540304109,0.0,2.385199999999999,1.0
mp-9307,Ba2Zn1N2,5,1,139,114.3393554417063,5.345536883012246,22.86787108834126,2.4028959,-4.922035323999998,-0.567185527999998,0.0,0.4771,0.0
mp-17911,Ba8Zn4O12,24,4,15,424.971005567963,6.065268212549831,17.707125231998457,1.6780606100000002,-5.857909737083333,-2.534313652916667,0.0,2.6704,1.0
mp-5587,Ba8Zn4S12,24,3,62,653.5838953000139,4.433545301995248,27.23266230416725,2.04414281,-4.830555057083333,-1.911759691666665,1.0,2.0208,0.0
mp-1079149,Ba4Zn2Sb4,10,3,72,365.0887635440092,5.308639798698232,36.50887635440092,3.46640755,-3.621798104000001,-0.95065891,0.0,0.2922,0.0
mp-1078410,Ba2Zn1Te1O6,10,0,225,141.04458602176385,6.636046659826348,14.104458602176384,3.24105021,-6.160366102999999,-2.367489561666666,1.0,0.444399999999999,1.0
mp-568105,Ba2Zr6B1Cl17,26,1,87,698.6813820012848,3.411741742233204,26.87236084620326,2.52562088,-5.9105517423076925,-2.324829702660257,0.0,1.0883,0.0
mp-8335,Ba2Zr1O4,7,1,139,119.77140138378309,5.959897098396696,17.110200197683298,1.879255,-8.027599675714287,-3.430814742857144,0.0,2.9787999999999992,1.0
mp-1202519,Ba12Al8As16,36,3,62,1071.6796531636242,4.745296093723967,29.76887925454512,3.08447536,-4.498031983055554,-0.950413470833332,1.0,1.0493,0.0
mp-17133,Ba12Al8N16,36,3,52,648.2082639062628,5.348608350006547,18.0057851085073,3.98513782,-6.211531911111113,-1.033622193333334,0.0,1.566199999999999,0.0
mp-1202948,Ba12Al8P16,36,3,62,995.7819310157256,3.934399208889846,27.660609194881264,4.69080233,-4.842542270555555,-0.963656650396823,1.0,1.2821999999999991,0.0
mp-30905,Ba12B8N16,36,3,19,708.4527476844862,4.590563950687879,19.67924299123573,1.63463328,-7.007171447222223,-1.177302631481482,0.0,2.5859,0.0
mp-29302,Ba6Ga4S12,22,4,15,608.1942481835408,4.061653626584356,27.645193099251856,1.94124601,-5.12311532909091,-1.791908577272728,1.0,2.678199999999999,0.0
mp-19913,Ba6In4P8,18,4,15,552.3512508444768,4.6027329881611525,30.68618060247093,3.650561869999999,-4.44550407388889,-0.785818917433863,1.0,1.1092,0.0
mp-1228324,Ba12Na8Sb16,36,4,14,1328.0639678264429,4.726309425607399,36.89066577295674,3.52767652,-3.661710382777777,-0.8887802341954011,0.0,0.700399999999999,0.0
mp-554255,Ba12P8S32,52,4,14,1377.5442210546644,3.522030847949599,26.49123502028201,2.42596397,-5.389380206538451,-1.5667072518681202,0.0,2.533599999999999,0.0
mp-31238,Ba9Sb6O18,33,5,2,680.2436564365897,5.503428570074368,20.613444134442112,2.45665713,-6.545911431515162,-2.57293931060607,0.0,2.9311,1.0
mp-27887,Ba6Si8P12,26,4,11,638.2459691277096,3.69530786907131,24.54792188952729,4.51516783,-5.267592780769231,-0.6559744659890101,1.0,0.405299999999999,0.0
mp-11692,Ba6Si4As8,18,4,15,558.2204190229605,4.568179939627731,31.012245501275583,2.71758774,-4.723113342777776,-0.8022187861111091,1.0,0.8265,0.0
mp-17470,Ba12Sn8As16,36,4,14,1215.2419315822292,5.187433594447794,33.756720321728594,3.04555542,-4.422536217222222,-0.816251921666667,1.0,0.851499999999999,0.0
mp-601867,Ba12Sn8P16,36,4,14,1133.47560285456,4.531507496120864,31.48543341262667,3.53533503,-4.701465967777779,-0.763914564285714,0.0,0.9956,0.0
mp-29354,Ba9Ta6S24,39,4,10,1008.5421873381878,5.089566194332099,25.86005608559456,4.00092948,-6.657345946666658,-1.842141604717939,1.0,1.108,0.0
mp-1203016,Ba18Al18As30,66,6,167,1971.796982698252,4.383534836289307,29.875711859064417,2.9897150100000003,-4.550159304393939,-0.882498852348484,0.0,1.293599999999999,0.0
mp-1196964,Ba18Al18P30,66,6,167,1828.8585550027824,3.529046950812372,27.70997810610276,3.49184516,-4.930501309242424,-0.9240449513528132,0.0,1.4661,0.0
mp-1192376,Ba12Al4As12,28,3,64,931.5041182997484,4.732754922554564,33.26800422499102,2.55536507,-4.401425421785715,-1.04244424357143,0.0,0.6837999999999991,0.0
mp-1192373,Ba12Al4P12,28,3,64,868.0989371978529,4.069646128087007,31.00353347135189,3.04624922,-4.689131588214287,-1.010714270204082,0.0,0.670099999999999,0.0
mp-18439,Ba12Al4Sb12,28,3,64,1107.165107317316,4.824849141435625,39.541610975618426,3.17254862,-4.122889408928573,-0.99581735607143,1.0,0.555099999999999,0.0
mp-524,Ba6As28,34,4,14,993.3231783751852,4.884319645929317,29.215387599270155,2.74006719,-4.631867536176471,-0.44724163764706,0.0,1.2631,0.0
mp-9793,Ba6B2As2O6,16,2,194,380.6109995298713,4.761689830950284,23.78818747061696,2.42047753,-6.52681196,-2.533021692708333,0.0,1.523299999999999,1.0
mp-9712,Ba6B2P2O6,16,2,194,369.0023197671224,4.5159535129146615,23.06264498544515,2.66961217,-6.582381376875,-2.495422235476191,0.0,1.4667,1.0
mp-1228299,Ba6Bi4Ru2O18,30,5,2,486.6339999416026,7.336479260632186,16.221133331386753,3.70171164,-6.709148578666667,-2.219612243666668,0.0,0.4466,1.0
mp-556407,Ba6Bi4Te2O18,30,6,165,511.6802199628292,7.14956003425265,17.056007332094307,3.81523855,-6.415487939,-2.334691380444445,0.0,2.1188,1.0
mp-669415,Ba6Bi12Pb2Se26,46,4,11,1444.2784597012794,6.667419372851461,31.39735781959303,3.11368332,-4.529993745652174,-1.127531703933424,1.0,0.8085,0.0
mp-567666,Ba6Bi2N2,10,2,194,350.63115470065736,6.014236453089481,35.06311547006574,2.9483435,-4.445894737999998,-0.8488473629999981,1.0,0.6466000000000001,0.0
mp-1019520,Ba6Ca4Si4N12,26,4,15,459.4501120597294,4.570850511220173,17.671158156143438,3.85073957,-6.600313586923077,-1.165819193846153,0.0,1.565,0.0
mp-1228693,Ba12Ca12Mo8N32,64,3,19,1196.865910231233,4.640310677792296,18.701029847363017,4.82078508,-7.3712048431250015,-1.110501928125002,1.0,2.2313,0.0
mp-1228277,Ba6Ca2Bi4O18,30,3,71,497.80608828546855,6.764925399342936,16.593536276182284,2.61188071,-6.423529262666666,-2.418579771666667,1.0,0.250399999999999,1.0