material_id,composition,nsites,crystal_system,space_group,volume,density,density_atomic,efermi,energy_per_atom,formation_energy_per_atom,is_gap_direct,band_gap,is_oxide
mp-545399,Na1Ni1I1O6,9,6,149,114.81056317021483,4.405288871699229,12.756729241134984,1.76968596,-5.294950883333333,-1.035657982931034,0.0,1.7121,1.0
mp-19149,Na1Ni1O2,4,4,12,38.89509783640153,4.853397000091615,9.723774459100383,3.8003646,-5.587576730625,-1.333131863469827,0.0,0.4204,1.0
mp-1545216,Na4O8,12,4,14,157.12869280799592,2.324481057510179,13.09405773399966,0.59711582,-4.65469398,-0.90881305045977,0.0,0.7083,1.0
mp-7440,Na8P8,16,3,19,336.7894842546889,2.128535623620998,21.04934276591805,3.32965515,-6.782991560625,-0.499863119613094,0.0,0.8684000000000001,0.0
mp-1194653,Na2P30,32,5,2,719.1923251194828,2.2516161792900222,22.47476015998384,3.72665819,-8.7582551609375,-0.096047332790178,0.0,1.4966,0.0
mp-1220996,Na1P4Ru2O14,21,5,1,264.1592642474459,3.602054803594901,12.579012583211709,3.0281618,-7.5454904080952385,-2.268163073330987,0.0,0.0097,1.0
mp-1195785,Na8P56,64,1,142,1522.926106728392,2.091801571441959,23.795720417631127,3.02766051,-8.51324551984375,-0.190906175572916,1.0,1.7429,0.0
mp-559446,Na2P2Pd2S8,14,1,140,345.9457812599012,2.770976759804617,24.7104129471358,1.90949107,-4.919682133571428,-0.849608650146023,0.0,1.160699999999999,0.0
mp-1189520,Na4P4S12,20,4,11,485.6658878761321,2.053626689443856,24.283294393806603,1.7347015300000002,-4.6998153905,-0.865360789204432,0.0,1.988,0.0
mp-1210084,Na1Rh1S2O8,12,4,12,150.41370181347088,3.510886354441218,12.534475151122573,3.18858074,-6.469422521666666,-1.755552869698275,0.0,1.2372,1.0
mp-8830,Na1Rh1O2,4,6,166,42.85092386653504,6.118637517373269,10.712730966633758,4.27006891,-6.109662107500001,-1.459174442844828,0.0,1.377399999999999,1.0
mp-1029313,Na2Ru2N2,6,2,186,90.47622756787764,5.067955908196289,15.07937126131294,4.1871017,-6.390335845,-0.072202157126437,0.0,0.4093,0.0
mp-2400,Na4S4,8,2,194,174.63099763463234,2.094029042503947,21.82887470432904,2.01368961,-6.80337951,-1.00378968390625,1.0,1.2348,0.0
mp-12180,Na8S16,24,1,122,535.223051008419,2.162325110475751,22.300960458684127,2.02308006,-7.249936484583333,-0.7052102397916661,0.0,2.0185,0.0
mp-7944,Na8Sb8,16,4,14,477.14458751880505,4.030017785940886,29.82153671992532,3.48942018,-15.0839714725,-0.448723322499999,1.0,0.6041000000000001,0.0
mp-2741573,Na2Sb10O26,38,3,63,486.2220660732918,5.736024194366857,12.79531752824452,3.83081834,-12.63719267236842,-1.600717723421052,1.0,1.679599999999999,1.0
mp-766341,Na2Sb10O26,38,3,40,507.0580106600823,5.50032042921633,13.343631859475847,3.89442983,-6.416894693947368,-1.874251533756805,1.0,1.0634,1.0
mp-28177,Na2Sb2Cl12,16,1,84,439.1649682892274,2.703262959484813,27.44781051807671,-0.73617684,-9.377713279375,-1.104572068749998,0.0,2.0509,0.0
mp-4482,Na2Sb2O6,10,6,148,128.83098377675014,4.9687664196043855,12.883098377675015,2.19702076,-6.119753534000001,-2.056832527275863,0.0,2.7012,1.0
mp-5414,Na2Sb2S4,8,4,15,193.5071325809145,3.584911961493707,24.188391572614314,3.78629976,-12.1301585925,-0.7950349764062511,0.0,0.8857,0.0
mp-1220879,Na1Sb1Se2,4,6,166,102.88752122861274,4.884897314723898,25.721880307153185,3.48632428,-15.2006476825,-0.727243492031249,0.0,0.6374999999999991,0.0
mp-1220883,Na1Sb1Te2,4,6,166,126.85507391371196,5.235361866714497,31.713768478427987,4.30227311,-3.589129464999999,-0.6497960136781591,0.0,0.658899999999999,0.0
mp-999460,Na1Sc1S2,4,6,166,80.19591520326138,2.734763085593306,20.048978800815345,2.95027384,-9.76013316,-2.001966637656251,0.0,1.678999999999999,0.0
mp-15668,Na4Se4,8,2,194,201.38756569723697,3.362503025133278,25.17344571215462,1.39102012,-9.93798829125,-1.000117890781251,1.0,0.4942,0.0
mp-15514,Na8Se16,24,1,122,636.4851691485202,3.775833329419609,26.52021538118834,1.36652948,-11.414884175416669,-0.6857838314583321,0.0,1.1815,0.0
mp-2402,Na8Si8,16,4,15,381.4632525333722,1.7786768064981051,23.841453283335767,2.336633469999999,-6.238333850625,-0.069361268125,0.0,1.1286,0.0
mp-11051,Na16Sn16,32,1,142,946.232296967758,3.978693238379946,29.56975928024244,3.82085077,-14.420799985625,-0.265617810625,0.0,0.342899999999999,0.0
mp-12433,Na2Sn2N2,6,2,186,108.2263388748383,4.778073024549201,18.037723145806385,4.74744335,-4.75781496,-0.194624833793103,0.0,0.917899999999999,0.0
mp-29529,Na2Sn2P2,6,2,186,152.99095454013414,3.748341139776323,25.49849242335569,4.22201162,-12.820948471666666,-0.383468250992062,0.0,0.5826,0.0
mp-620652,Na4Sr8Al4P12,28,4,12,679.9228216620453,3.107832734340008,24.28295791650162,3.95434646,-4.409751599642857,-0.8785268332582681,1.0,0.3122,0.0
mp-1106050,Na2Sr4I2O12,20,4,14,271.1166411646844,5.158693879228861,13.55583205823422,5.05298541,-5.81219865050001,-2.21836309013794,0.0,2.563,1.0
mp-6233,Na2Sr6Ru2O12,22,6,167,318.6786547754795,5.032663173171901,14.485393398885432,2.97807575,-6.662409879999999,-2.536848641943573,1.0,0.5002,1.0
mp-10461,Na2Sr6Sb2O12,22,6,167,331.05213502556666,5.052120979105783,15.047824319343938,2.55134284,-6.392569182727272,-2.734771699216301,0.0,2.9095,1.0
mp-10811,Na1Sr4B3N6,14,0,229,218.7515188809925,3.719148763204932,15.625108491499464,2.35374992,-6.802837465714285,-1.218603542777094,0.0,1.9666,0.0
mp-9775,Na3Sr3As3,9,2,189,243.24829841599964,3.799600105432437,27.02758871288885,2.28034198,-12.19333814888889,-1.054213939722223,1.0,0.806999999999999,0.0
mp-17259,Na4Sr4Cr4F24,36,4,14,522.7300933259909,3.514616422981948,14.520280370166413,0.85201922,-6.146126902777778,-3.460536837375479,0.0,2.0585,0.0
mp-13275,Na3Sr3P3,9,2,189,228.2421343909912,3.090204867365227,25.36023715455457,2.58578418,-10.200946298888889,-0.963640314880952,1.0,1.2357,0.0
mp-1210039,Na4Sr4V4F24,36,3,19,550.5351343140728,3.324385382001378,15.292642619835355,-0.19878495,-6.156180481666666,-3.533828349597701,1.0,2.5448,0.0
mp-1202184,Na1Tc12Br25,38,5,2,1148.816954242178,4.620459484152378,30.232025111636265,1.57478563,-5.216546388947369,-0.832518718062613,0.0,0.965499999999999,0.0
mp-28478,Na12Te36,48,6,165,1583.040369588561,5.107865429037708,32.980007699761686,4.00844872,-20.430028077291663,-0.476064702291668,0.0,0.5092,0.0
mp-1200852,Na2Ti4As6O24,36,6,167,530.5743938905508,3.351792862093251,14.738177608070856,0.16136957,-7.383901348055556,-2.355089988641444,1.0,2.378,1.0
mp-6761,Na2Ti4P6O24,36,6,167,472.0046186622634,2.840041817178361,13.111239407285094,1.02946266,-8.173157188055555,-3.020120663165252,0.0,2.4429,1.0
mp-560591,Na2Ti4Al10O24,40,3,55,405.4487534145941,3.650160422538417,10.136218835364852,3.65586201,-8.1252676145,-3.3634618134023,0.0,2.7190000000000003,1.0
mp-1201259,Na4Ti4As4O20,32,4,14,403.6675262363508,3.715025822968669,12.614610194885962,1.15750483,-7.3547171221875,-2.523824578089081,0.0,2.9036,1.0
mp-1180119,Na1Ti1Cu3Se4,9,0,215,204.7991246654485,4.681108576328191,22.75545829616095,2.89912127,-4.837538745555555,-0.8910411104541831,0.0,1.3708,0.0
mp-505171,Na4Ti4Cu4S12,24,3,62,438.81768268601184,3.490439147451061,18.28407011191716,4.41427555,-5.5892874416666665,-1.297371080368772,0.0,0.155999999999999,0.0
mp-27264,Na4Ti4F16,24,3,60,312.97999015929736,3.116503342783847,13.040832923304055,2.77538663,-6.264287071666666,-3.448850022452107,0.0,0.201099999999999,0.0
mp-28566,Na8Ti8Se32,48,4,14,1188.5736982152232,4.32198756059751,24.761952046150483,2.14092493,-5.042936165833333,-1.172793048181273,0.0,0.9939999999999992,0.0
mp-18953,Na2V2O4F4,12,4,4,161.39693397586723,2.961595290726615,13.449744497988936,-0.96993189,-6.721774391666666,-2.696898790229884,0.0,2.1974,1.0
mp-554124,Na4V4S8O32,48,4,12,627.5234223766155,2.816131767562633,13.073404632846156,1.37065951,-6.9973345885416665,-2.140165086573276,0.0,1.6873,1.0
mp-19287,Na4V4Si8O24,40,4,15,447.42967848101415,3.356466424134577,11.185741962025354,5.36429859,-8.04122801675,-2.944825122887931,0.0,0.0673,1.0
mp-752972,Na2V6O16,24,4,11,297.3357115178601,3.393386485377821,12.388987979910835,-0.02251572,-8.022206525833333,-2.340779273448275,0.0,1.9032,1.0
mp-776555,Na4V12P8O52,76,3,33,1046.0925807252586,2.83031132644576,13.764376062174454,0.64830725,-7.933890259473685,-2.473475569771844,0.0,2.1674,1.0
mp-17507,Na4V4As4O20,32,4,14,396.46339368257054,3.8340402103302633,12.38948105258033,1.90530659,-7.137655243125,-2.158210942359914,0.0,1.5064000000000002,1.0
mp-1120756,Na4V4F12,20,3,62,240.0279752499301,3.623053234628042,12.001398762496509,4.38679154,-8.424366318,-3.017998288,1.0,2.020699999999999,0.0
mp-1029711,Na4V4N8,16,3,64,233.0685420538676,2.905293086390553,14.566783878366724,1.688621009999999,-7.593011284375001,-0.8174656997198291,0.0,0.9301,0.0
mp-752810,Na4V4P8O28,44,4,4,561.1384833484066,2.934073908479117,12.753147348827422,1.90053069,-7.791763511363637,-2.710645244605911,0.0,2.1604,1.0
mp-19291,Na4V4P4O20,32,4,14,347.3288897453486,3.535980512985785,10.854027804542143,2.38101248,-7.702633466562499,-2.63002029169027,1.0,1.2667000000000002,1.0
mp-1209918,Na1Y1Pd6O8,16,0,200,198.33765937986672,7.354304202737901,12.39610371124167,3.56803956,-6.339524685624999,-1.432412736961206,0.0,0.031099999999999,1.0
mp-10226,Na1Y1S2,4,6,166,90.34813763353296,3.235234562581743,22.58703440838324,2.2075325,-12.1217575325,-2.13481260890625,0.0,2.263499999999999,0.0
mp-999448,Na1Y1Se2,4,6,166,101.94114702976468,4.395078823887412,25.485286757441177,1.90679421,-15.1226794025,-1.99745390453125,0.0,1.8434,0.0
mp-13097,Na2Zn2As2,6,1,129,120.67129330811764,4.494852854000774,20.11188221801961,2.79003367,-2.838819916666666,-0.414957609626436,1.0,0.357599999999999,0.0
mp-4824,Na2Zn2P2,6,1,129,110.97209835409215,3.572479111584915,18.49534972568203,3.23608079,-7.677572828333333,-0.518619665992063,1.0,0.9102,0.0
mp-559126,Na1Zr2Cu1F11,15,5,2,223.5172866428108,3.550873254478511,14.90115244285405,-1.19950031,-6.373420324666666,-3.467506669091953,0.0,0.8712000000000001,0.0
mp-554702,Na1Zr2Ni1F11,15,4,12,209.46799614954088,3.75056637586831,13.96453307663606,-1.14166127,-6.595477526000011,-3.577501869758632,0.0,1.8738,0.0
mp-16291,Na1Zr2Pd1F11,15,4,12,235.551181750969,3.671709479722932,15.703412116731268,-1.1119361,-6.362708324,-3.384749659091953,0.0,1.331899999999999,0.0
mp-558441,Na1Zr2V1F11,15,4,12,229.15469014930537,3.372181864945113,15.276979343287024,0.89795185,-6.965480968,-3.727254019091953,0.0,2.163,0.0
mp-9107,Na2Zr2Cu2S6,12,3,63,238.5973729995436,3.813223851980127,19.88311441662864,4.20033413,-5.836170265,-1.435552468146551,0.0,0.543899999999999,0.0
mp-505172,Na4Zr4Cu4Se12,24,3,62,539.161986220672,5.108116321640272,22.46508275919467,3.48096715,-5.367072655833333,-1.287678903901759,0.0,0.2968,0.0
mp-505173,Na4Zr4Cu4Te12,24,3,62,664.7936289636764,5.600723926941135,27.699734540153184,4.68550279,-4.835246290416667,-0.932155330646552,1.0,0.004899999999999,0.0
mp-559923,Nb4P8S32,44,3,64,1236.9652577349602,2.208962407958344,28.11284676670364,1.477715659999999,-5.714928288863636,-0.802280231525974,0.0,1.2678,0.0
mp-1079487,Nb2S4Br4,10,5,2,260.3449535755908,4.041810404209689,26.03449535755908,2.0684847,-5.593272281999999,-1.262888832999999,0.0,1.4999999999999991,0.0
mp-27362,Nb2S4Cl4,10,4,12,232.16074394190332,3.260734097393324,23.216074394190336,2.2955644,-5.872545882,-1.457523926999999,1.0,1.510199999999998,0.0
mp-27361,Nb2Se4Cl4,10,5,2,253.07065098260307,4.222134679828382,25.307065098260303,2.183147,-14.187188711,-1.054774129624999,0.0,0.9933999999999992,0.0
mp-1205627,Nb2Se4I4,10,4,12,326.40210403792184,5.134566553828563,32.64021040379218,2.68959173,-4.939992007000001,-0.9117613619375,0.0,0.959299999999999,0.0
mp-1204878,Nb20Se80I6,106,4,13,3055.2825418281404,4.856888168029956,28.823420205925853,2.71478345,-5.570509678113208,-0.939914445070754,0.0,0.1289,0.0
mp-676330,Nb12Br17F13,42,5,1,997.3619370551306,4.528985641651053,23.74671278702692,1.55380874,-6.204287488571429,-2.063243858809524,0.0,0.1221,0.0
mp-504552,Nb8Co4O24,36,3,60,403.9845366521608,5.602352969365906,11.221792684782246,2.39606041,-9.004467136944454,-2.668490155833343,0.0,1.7676,1.0
mp-466,Nb6F15,21,0,229,280.3857585884136,4.989061887273012,13.351702789924456,2.44114787,-12.19565115095238,-2.89589557238095,0.0,0.1513,0.0
mp-22366,Nb8Fe4O24,36,3,60,415.9281013711032,5.392161980224028,11.553558371419534,2.28404452,-9.225335676111111,-2.7408470850000013,0.0,2.0862,1.0
mp-29073,Nb8Ge4Te16,28,4,14,776.468225674052,6.577011149863456,27.73100805978757,5.06454707,-6.063287284285715,-0.7205927830952371,0.0,0.1734,0.0
mp-22198,Nb8Ni4O24,36,3,60,406.727829219363,5.560650268190626,11.297995256093415,2.3237486,-8.844885038888888,-2.659272506666665,0.0,2.998199999999999,1.0
mp-581967,Nb28O70,98,4,3,1436.934978242596,4.300420662212256,14.662601818802,0.4008034,-9.45455028969388,-3.034205274693879,0.0,1.7731,1.0
mp-648932,Nb8P4S40,52,3,18,1399.374123847296,2.550952816377832,26.91104084321723,3.12968436,-6.118196437500003,-0.9642211082417612,0.0,1.5194,0.0
mp-504898,Nb4Pd6Se16,26,3,55,607.1882472927358,6.21758532205357,23.35339412664369,2.93733311,-18.62678643384616,-0.71586397403846,0.0,0.3082,0.0
mp-1203143,Nb8S12O56,76,3,33,1092.518503088352,3.07631111996516,14.37524346168884,2.42638067,-7.55748096263158,-2.194894496710526,0.0,2.8957,1.0
mp-573340,Nb4Se34Cl24,62,5,2,1877.174826833054,3.456233483316171,30.277013336017003,0.09278605,-12.404599547741936,-0.578988580131049,0.0,1.3168,0.0
mp-29193,Nb4Se8O26,38,4,7,554.4151869704924,4.250941197822965,14.589873341328747,0.7102111,-7.050556294736843,-1.865832660230264,0.0,2.427,1.0
mp-541106,Nb4Se18,22,5,2,613.4361653551142,4.8532998652913,27.883462061596106,2.29007432,-16.78771340681818,-0.581150554232953,0.0,0.7746999999999991,0.0
mp-29072,Nb8Si4Te16,28,4,14,759.658864413679,6.332977145096271,27.130673729059964,5.57822005,-6.195107845357141,-0.737800462023806,0.0,0.2534,0.0
mp-3324,Nb4Sn2O12,18,4,15,239.298716146728,5.558556458731841,13.294373119262664,3.39422276,-8.735033227222253,-2.746150120000032,0.0,1.7399,1.0
mp-27322,Nb4Te6O22,32,3,18,499.3293140730171,4.952433526585239,15.604041064781784,2.19715256,-7.42627390125,-2.1725177253125,1.0,2.5672,1.0
mp-28745,Nb8Te24I4,36,4,14,1191.7018303795612,6.01018758537138,33.10282862165448,4.44094802,-5.21697888638889,-0.7073724358333341,0.0,0.7160000000000001,0.0
mp-2713968,Nb4Zn8S18O72,102,6,158,1490.1727436469823,2.924019992745708,14.609536702421396,-0.25182293,-6.697828672941178,-1.979918539460785,1.0,2.3571,1.0
mp-1220763,Nb3Al1P6O24,34,6,146,486.7028474750602,2.987140650396941,14.314789631619416,0.05917993,-8.363194661470587,-2.913388890231092,0.0,2.7709,1.0
mp-27771,Nb6Br16,22,6,166,606.5489387185947,5.026119516160572,27.57040630539067,2.71126035,-5.263008567727274,-1.317600622272728,0.0,0.030699999999999,0.0
mp-29924,Nb12Cl20O8,40,3,58,810.0145801304121,4.001482223067458,20.250364503260304,3.18026956,-7.024643133250001,-2.080388020250001,0.0,0.8969,1.0
mp-27880,Nb12Cl28,40,3,64,956.1151920469242,3.66031904337068,23.902879801173107,2.22883442,-13.14592536,-1.41899573675,0.0,0.9765,0.0
mp-29950,Nb6Cl16,22,6,164,511.4823193755154,3.651319771696544,23.2491963352507,3.00105071,-12.67436542,-1.45420768090909,0.0,0.1451,0.0
mp-29698,Nb12Cl4O28,44,3,62,674.1593495685532,4.1988204346959614,15.3218033992853,0.44537283,-8.978419364318183,-2.906766186590912,1.0,2.0588,1.0
mp-771766,Nb3Co1P6O24,34,6,146,483.297995760436,3.117966238780818,14.21464693413047,0.12524411,-8.258749189117646,-2.709301038760503,0.0,2.1295,1.0
mp-774426,Nb3Cr1P6O24,34,6,146,493.49352353160384,3.030206974336296,14.514515397988347,0.11786822,-8.452265900588236,-2.828710963466386,0.0,2.6167,1.0
mp-859878,Nb3Fe1P6O24,34,6,146,495.4488251183608,3.03114810142082,14.572024268187082,-0.04688459,-8.370244728823529,-2.78148468170168,0.0,2.640599999999999,1.0
mp-2714005,Nb9Ga3P18O72,102,6,143,1489.74793702794,3.070634344660359,14.60537193164647,0.6259113900000001,-8.235937234215687,-2.807233810255603,1.0,1.7787000000000002,1.0
mp-27772,Nb6I16,22,6,166,739.8199210400187,5.808609908335435,33.62817822909176,4.40437203,-4.661118035454549,-0.797843850000002,0.0,0.0677,0.0
mp-28585,Nb24I8Cl48,80,0,205,2074.864032155967,3.958930836898938,25.935800401949585,2.71105572,-5.865301565624999,-1.573383112124999,0.0,1.0733,0.0
mp-2713927,Nb9In3P18O72,102,6,143,1544.527448695006,3.107175085819767,15.1424259675981,0.587610299999999,-8.21319190382353,-2.792397958662466,1.0,1.8623999999999992,1.0
mp-1210229,Nb6In4Cl18,28,4,12,760.7156306568838,3.612344319109087,27.168415380603,2.57569865,-5.289993548571428,-1.5429115623809522,0.0,0.9687,0.0
mp-2752758,Nb6In4Cl18,28,4,12,736.4957270723295,3.731137447035058,26.303418824011768,2.8391292100000003,-13.775307162857144,-1.294496106607141,1.0,1.0641,0.0
mp-29057,Nb3S1Br7,11,6,156,292.2560282322784,4.943799481338981,26.56872983929804,1.852211979999999,-5.557823389090908,-1.385014258863635,1.0,0.7444000000000001,0.0
mp-541158,Nb12S4I28,44,4,14,1603.42032444349,4.96732637480805,36.44137101007932,2.8266226,-5.014137432045453,-0.91319534181818,0.0,0.5787,0.0
mp-1220893,Nb6Sb2P12O48,68,4,7,1006.4654889801036,3.201765417344551,14.800963073236815,1.20522121,-8.218514483088235,-2.757431493907562,0.0,1.6892,1.0
mp-569571,Nb6Sb4Te10,20,0,217,486.2581948747858,7.924277426581994,24.31290974373929,7.49622658,-6.072731759499999,-0.644887052833331,0.0,0.844599999999999,0.0
mp-567731,Nb12Se40Br12,64,4,11,1851.857219032065,4.69158590840955,28.93526904737601,1.16337932,-5.429320049843749,-1.043453205996092,0.0,1.246999999999999,0.0
mp-571061,Nb12Se40Cl12,64,4,11,1758.601582147875,4.436704622473163,27.478149721060547,1.53650955,-15.5431683703125,-0.8072219358203121,0.0,1.1681,0.0
mp-23410,Nb12Se48I4,64,1,128,1829.199479618988,4.913510750819111,28.58124186904668,2.58057094,-5.5483857589062495,-0.9372066672265612,1.0,0.0718,0.0
mp-540615,Nb6Se10Cl14,30,4,11,812.3540134497557,3.768067762158437,27.078467114991856,1.52374833,-13.708468094666667,-1.119994935520835,0.0,1.0202,0.0
mp-1199992,Nb12Te16Cl4O60,92,4,15,1493.5811270696702,4.73425554405765,16.23457746814859,2.16293574,-7.358209984673913,-2.186684046920291,1.0,2.3912,1.0
mp-28938,Nb6Te2Cl14,22,6,164,555.3937859434598,3.913642801488392,25.24517208833908,2.52881489,-5.846736029090909,-1.6297341551515152,1.0,0.7027000000000001,0.0
mp-29689,Nb6Te2I14,22,2,186,747.0171636989608,5.755738210780495,33.95532562268004,3.75185347,-4.833280822727276,-0.8227981574242461,0.0,0.5137,0.0
mp-1220713,Nb8P4S42,54,4,5,1335.347045363955,2.753012968051018,24.728648988221387,2.77422325,-6.053343380740739,-0.936983450066136,1.0,1.192399999999999,0.0
mp-1232409,Nb16Si4Te16,36,3,55,1015.1342173399544,5.9549757178446825,28.198172703887625,4.22140225,-7.298208146111114,-0.8089012835185211,1.0,0.1692,0.0
mp-654301,Nb10P14O60,84,4,15,1209.9694774618004,3.187574990446983,14.40439854121191,-0.00250206,-8.499474911666667,-2.86010181577381,0.0,2.585,1.0
mp-2713821,Nb10Zn2P18O72,102,6,158,1519.4666077032011,3.026483724045337,14.8967314480706,0.2132123,-8.273314954313726,-2.80993992062325,1.0,2.3561,1.0
mp-696500,Nb24H4I44,72,3,56,2553.625951421145,5.083516471739863,35.46702710307146,3.18567585,-5.215582037083333,-0.728518956875,1.0,0.213899999999999,0.0
mp-1210167,Nb12H2S2I18,34,5,2,1071.5909567728115,5.369838935914274,31.51738108155328,3.8363982,-5.611130785294118,-0.795985504044117,0.0,0.030499999999999,0.0
mp-651907,Nb24In4Cl60,88,3,51,2343.843491516554,3.412129173072158,26.634585130869933,2.20710467,-5.780793637386363,-1.640105183598485,0.0,0.8771,0.0
mp-583476,Nb28S8I76,112,4,14,4835.398546588455,4.293569440516843,43.17320130882549,1.85851231,-4.748770949732142,-0.8936961604464281,0.0,0.4354,0.0
mp-1220584,Nb9As1O25,35,4,5,486.3552192972495,4.476302376623751,13.895863408492843,0.21815041,-9.171183418,-2.906015046071429,0.0,2.2043,1.0
mp-1220604,Nb9P1O25,35,4,5,481.53343366280143,4.369573896722297,13.75809810465147,0.40499463,-9.301881161428572,-3.015417046846941,0.0,2.1273,1.0
mp-774246,Nb9V1O25,35,1,82,488.4962368932143,4.37516805604354,13.95703533980612,1.09949067,-9.36211575,-2.970839276999999,0.0,2.0136,1.0
mp-997394,Nb2Ag2F12,16,1,132,234.00062383274624,4.467334910555683,14.62503898954664,-1.36305001,-10.825351484375,-2.719586547499998,0.0,2.8973,0.0