material_id,composition,nsites,crystal_system,space_group,volume,density,density_atomic,efermi,energy_per_atom,formation_energy_per_atom,is_gap_direct,band_gap,is_oxide
mp-1223983,La2Ti12P18O72,104,5,2,1385.8487646374267,3.069456157208374,13.325468890744489,1.1805816,-8.462772548173078,-3.09402606522665,0.0,2.421299999999999,1.0
mp-556399,La4Ti4I20O64,92,4,14,1461.203247840001,4.896989371807511,15.88264399826088,2.9312804100000003,-5.875358608586957,-1.5441004226449282,0.0,2.8734,1.0
mp-1222719,La1Ti1Sb1O6,9,6,149,125.7439563436964,5.342093661873452,13.971550704855154,3.67561661,-8.259931616666668,-3.076790906481482,0.0,2.7433,1.0
mp-1195614,La4Tl4P8S24,40,4,14,1002.1763249281051,3.960907012987237,25.054408123202627,6.01662806,-5.43930657525,-1.142448207511904,0.0,2.4808,0.0
mp-1195547,La4Tl4P8Se24,40,4,14,1112.2217144588938,5.24934072625522,27.805542861472343,5.08057461,-4.8863207735,-0.9749312596681552,0.0,1.777499999999999,0.0
mp-1190334,La2Tl4P4S14,24,4,12,632.8840808627679,4.376831365097504,26.37017003594866,3.49373903,-5.1929668675,-1.069765587371032,0.0,2.0622,0.0
mp-684022,La8Tl8Ge8Se32,56,3,29,1643.8071575514136,5.913738115669808,29.353699241989528,3.2491949,-4.945127965178571,-1.243106109851191,0.0,1.461899999999999,0.0
mp-1199053,La8Tm8S24,40,4,11,933.3866457636792,5.750374710812791,23.33466614409198,5.80643226,-20.25269934475,-2.458534196437497,1.0,0.7541000000000001,0.0
mp-1196184,La4V8I4O36,52,3,57,786.7467086492103,4.319952740679587,15.1297443971002,1.631616199999999,-7.6429325421153855,-2.3229724725,0.0,2.51,1.0
mp-1202389,La4V4I20O64,92,4,14,1474.4794468918487,4.866746769031425,16.026950509694007,3.25607624,-5.797497605978261,-1.414569243804348,0.0,2.3631,1.0
mp-19162,La2V2O8,12,1,141,182.40617724708213,4.621760421614463,15.200514770590177,2.04458258,-8.85985034,-3.224557474166666,0.0,2.8563,1.0
mp-989524,La2W2N6,10,6,161,129.99677793673973,9.318807569682567,12.999677793673971,7.57654229,-22.944048964,-1.244283644250001,0.0,1.2096,0.0
mp-1200447,La8Y8S24,40,4,11,956.475893385198,4.500062413751802,23.911897334629952,5.78165005,-17.29553384275,-2.4628581604375,1.0,0.7897999999999991,0.0
mp-549589,La2Zn2As2O2,8,1,129,154.89931395845508,6.329918696896234,19.362414244806885,5.96221076,-6.013969787500001,-2.060511224375001,1.0,0.5760000000000001,1.0
mp-1222744,La1Zn1Cu1P2,5,6,156,97.80546965934786,5.599472712737342,19.56109393186957,6.80529415,-5.008264007999999,-0.783083120857142,0.0,0.1859,0.0
mp-7060,La2Zn2P2O2,8,1,129,146.62733461290037,5.691611744713422,18.328416826612543,6.2963998,-6.20593320625,-2.066136894910714,1.0,0.6563000000000001,1.0
mp-774082,Li8Co16O32,56,4,4,524.3428952878199,4.7834051294533495,9.3632659872825,2.10926794,-6.644707010535714,-1.506478392440475,1.0,0.665899999999999,1.0
mp-1196908,Li4Nd16Ge16,36,3,62,904.264288917043,6.4232988290167885,25.118452469917862,3.40034216,-5.191650956944445,-0.805692732870369,1.0,0.055699999999999,0.0
mp-774941,Li8Ni16O32,56,0,212,533.953942491228,4.685373161198586,9.5348918302005,3.44832353,-5.967970309821429,-1.21639313172619,0.0,0.869599999999999,1.0
mp-1197150,Li4Pr16Ge16,36,3,62,929.5856658033694,6.153032327786486,25.8218240500936,3.42574161,-5.185475579999999,-0.7873733444444431,0.0,0.0551,0.0
mp-28989,Li10Br1N3,14,2,187,180.7496341921065,1.757778095888539,12.910688156579036,0.36508959,-3.930397061428571,-0.6631821730952381,0.0,1.3667,0.0
mp-721239,Li20Ge2P4Se24,50,5,1,1164.2888963472485,3.284648407238967,23.285777926944967,0.99884952,-4.1094491638,-1.049683511629762,0.0,1.506599999999999,0.0
mp-721253,Li20Si2P4Se24,50,5,1,1153.3224861091294,3.187582603777906,23.066449722182583,1.08789607,-4.1664239026,-1.074566643429761,0.0,1.606599999999999,0.0
mp-721252,Li20Sn2P4Se24,50,5,1,1181.3724161157827,3.366662099345756,23.62744832231565,1.04784968,-4.0891458662,-1.053918454029761,0.0,1.5635,0.0
mp-3297,Li20Zn8O18,46,1,137,431.4634690797935,3.656501794710325,9.379640632169425,0.53985078,-4.977130375652173,-1.991919412536232,1.0,2.5347,1.0
mp-1210986,Li28Be12B18O54,112,2,176,1015.946117528199,2.224618908735999,9.070947477930348,0.21744774,-7.081722680446428,-2.744742851949405,1.0,0.0084,1.0
mp-1222798,Li28Mg2Si8,38,1,122,598.7549890039114,1.296920818104255,15.756710236945038,1.93532854,-2.868959592631579,-0.234398420614035,0.0,0.098999999999999,0.0
mp-530262,Li60Cr8N36,104,3,33,946.154285953698,2.345909950526654,9.097637364939404,2.47510291,-5.496756722692307,-0.7665860440384621,0.0,1.3355,0.0
mp-1212343,Li66Cu63Si42,171,6,144,2313.1426880648023,4.049580976666279,13.527150222601184,4.94151579,-3.845524324269006,-0.265978788187134,1.0,0.0487,0.0
mp-16238,Li2Ag1Sb1,4,0,216,72.09594425856892,5.608612306475472,18.02398606464223,5.22984957,-13.477048195,-0.5181467695833331,1.0,0.1478,0.0
mp-29410,Li4B4S10,18,3,63,355.484752829781,1.829511405395888,19.74915293498784,1.565338479999999,-5.203169427222223,-0.995566414722222,0.0,2.4427,0.0
mp-30100,Li4B4Se10,18,4,15,333.4083379835799,4.286255147880775,18.52268544353221,2.59944206,-10.736193768333331,-0.6224246154050931,0.0,1.704699999999999,0.0
mp-1194523,Li8Ca4Ta8O28,48,3,62,547.2010120459179,6.407284470973906,11.400021084289955,4.19092367,-8.557715492083334,-3.208296514277779,1.0,2.8142,1.0
mp-7688,Li4Cd2Ge2O8,16,3,31,195.9168468900648,4.4570596151904365,12.24480293062905,-0.03482247,-5.7625412825,-2.113450307708333,0.0,2.455,1.0
mp-1189383,Li4Cd2Ge2S8,16,3,31,350.5641099724573,3.099671320379832,21.91025687327858,0.881517999999999,-4.342972118125,-1.098681862083332,1.0,2.2131,0.0
mp-1188784,Li4Cd2Sn2S8,16,3,31,374.1396937644697,3.313296097401023,23.38373086027936,1.35910547,-4.271065436875,-1.103457180833332,1.0,1.9176,0.0
mp-8181,Li2Ce1N2,5,6,164,60.05182487136568,5.032936816057925,12.010364974273134,5.07943776,-11.941325722,-1.167017136166667,0.0,1.203599999999999,0.0
mp-754534,Li2Ce1O3,6,3,65,75.06942087939011,4.468165299205542,12.51157014656502,1.92567196,-7.098607679999996,-2.998827910277773,0.0,2.3129,1.0
mp-562404,Li4Co6Se8O24,42,4,14,549.773331340511,4.219595090385217,13.08984122239312,1.85090807,-6.193777472380951,-1.499621574097221,0.0,2.6403,1.0
mp-757613,Li8Co12Sb4O32,56,0,212,563.3195079202652,5.193233875818305,10.059276927147591,4.22196562,-6.672324034642856,-1.7486965222619042,1.0,0.8174999999999991,1.0
mp-756582,Li8Co4Ge4O16,32,4,7,363.29338110589663,3.829461991818445,11.35291815955927,1.34321648,-6.511154946875,-2.090388155833333,0.0,2.6944,1.0
mp-753732,Li8Co4Si4O16,32,4,7,342.0618948023334,3.201994317682924,10.68943421257292,2.0161219,-7.03219662625,-2.511143563333333,0.0,2.996299999999999,1.0
mp-775393,Li8Cr12Sb4O32,56,0,212,623.0030381819373,4.473843582689358,11.12505425324888,2.81714003,-7.789616760357142,-2.32606837297619,1.0,2.9106,1.0
mp-867580,Li4Cr10Si8O28,50,5,2,599.4637685674097,3.380536124004364,11.989275371348194,3.17963742,-8.382377315,-2.660144944066666,0.0,2.6538,1.0
mp-756242,Li6Cr3Fe3O12,24,5,2,224.38945761083824,4.123141271117401,9.349560733784926,2.86209145,-7.393772102916666,-2.177177298749999,0.0,2.0383,1.0
mp-17159,Li12Cr6O24,42,6,148,520.2010902641682,2.487465070969037,12.385740244384955,-1.615807569999999,-6.840093775238096,-2.088274171904762,0.0,2.9665,1.0
mp-1198048,Li4Cu6Se8O28,46,4,15,618.2136937993611,3.99869793724551,13.439428126073066,1.38920699,-5.633219744130435,-1.312760364827898,0.0,0.6886000000000001,1.0
mp-629443,Li2Eu1Ge1S4,8,1,121,166.73528246713374,3.652472659104569,20.84191030839172,3.97579744,-5.8836330125,-1.473330040833333,0.0,0.2021,0.0
mp-14629,Li6Eu3Si3O12,24,6,152,275.9009544534109,4.657120680986643,11.495873102225454,5.54152359,-7.90015166125,-2.984761698958333,0.0,0.0433,1.0
mp-21778,Li8Fe8Mo12O48,76,3,60,1211.0308287579762,3.320361750845996,15.934616167868109,0.34224335,-7.956688062894736,-2.026668560614035,0.0,2.656399999999999,1.0
mp-771712,Li4Fe6Sb2O16,28,2,186,305.5233444620702,4.686897387775584,10.911548016502508,3.0117184,-7.139220405,-1.929177644761905,0.0,1.891799999999999,1.0
mp-755193,Li4Fe2F12,18,1,136,184.3694938194828,3.309332205415984,10.242749656637931,-2.32338489,-5.273301633333333,-2.63208150074074,0.0,0.323099999999999,0.0
mp-1210923,Li8Fe4Ge4O16,32,3,31,366.9657085174947,3.735242528765551,11.46767839117171,1.34686004,-6.72966544125,-2.141823088958333,1.0,2.1565,1.0
mp-774155,Li8Fe4O12,24,4,5,215.4836879545076,3.628809133145505,8.978486998104483,1.95257704,-6.399917599166667,-1.877959272777777,0.0,0.091399999999999,1.0
mp-1222769,Li4Ga14,18,4,8,338.43579039591435,4.925578111767376,18.80198835532857,2.51198106,-9.67058112,-0.240265067037037,1.0,0.1587,0.0
mp-1029776,Li8Ge4N8,20,4,14,207.7423915630324,3.662045185437288,10.387119578151616,4.87368727,-5.5917280625,-0.568242246833334,0.0,2.695099999999999,0.0
mp-19896,Li2Ge1Pb1S4,8,1,121,170.71237400063112,4.10466786900527,21.33904675007889,2.76233331,-4.6497658375,-1.061395971458332,0.0,2.2649,0.0
mp-1078552,Li2H6Pt1,9,0,225,73.51507460549726,4.856671247194381,8.16834162283303,-0.77772612,-8.985142582222222,-0.430497678425925,0.0,2.8838,0.0
mp-1189725,Li8H4N4,16,3,62,138.7954188565652,1.38286983846532,8.674713678535324,0.50274726,-4.470395329375,-0.582572850104166,1.0,2.0831,0.0
mp-1097065,Li2Hf1N2,5,6,164,49.2193319323135,7.435260740871785,9.8438663864627,5.43013074,-15.068285076,-1.431819164166668,0.0,1.9346,0.0
mp-1206880,Li2Hg1O2,5,1,139,57.68750319890507,7.094680294360936,11.537500639781014,2.15678336,-4.307147351999999,-1.502459395833334,0.0,1.1767,1.0
mp-866193,Li2La1In1,4,0,225,89.71275816806389,4.953245741685844,22.42818954201597,5.25164104,-14.68614327,-0.411947417083332,0.0,0.111699999999999,0.0
mp-1193106,Li8Mg4H8N8,28,3,60,262.72082253654,1.724656566228122,9.382886519162144,3.44274381,-4.814493862857143,-0.6837504177380951,1.0,2.3086,0.0
mp-1222661,Li2Mg1Cd1P2,6,1,115,109.9136399555946,3.211067763523768,18.3189399925991,4.56613574,-3.4708704616666672,-0.5976582968253961,0.0,2.004,0.0
mp-581301,Li8Mg4Mn12O32,56,0,212,577.999545055977,3.803687043495448,10.321420447428162,2.36302548,-7.396119925357143,-2.21625923503284,0.0,1.9551,1.0
mp-1105932,Li8Mg4Si4,16,0,215,254.3853585544921,1.7304152395653691,15.899084909655755,3.66786798,-2.938963591875,-0.220555147291666,1.0,0.198399999999999,0.0
mp-1222615,Li2Mg1Sn1,4,0,216,76.83697523140434,3.390732094121482,19.209243807851085,4.31397066,-2.705920775,-0.341448874166666,0.0,0.047499999999999,0.0
mp-773051,Li4Mn6Se8O24,42,5,2,611.5866362202084,3.728034752245043,14.56158657667163,1.95931999,-6.722768558333333,-1.7388128640397502,0.0,2.7896,1.0
mp-1287701,Li4Mn6Co2O16,28,4,12,286.1457249589866,4.243528823359388,10.219490177106664,2.99106848,-7.523973682857144,-1.951045370747127,0.0,0.3865,1.0
mp-771112,Li8Mn12Ni4O32,56,0,212,568.4549463023145,4.26936650479326,10.150981183969902,2.2454677,-7.426918791785714,-1.950653339675697,0.0,1.399299999999999,1.0
mp-763186,Li4Mn6Sb2O16,28,6,159,308.65305293569173,4.610096502448382,11.023323319131848,3.35218477,-7.470535416428571,-2.11220821003284,0.0,1.0917,1.0
mp-704943,Li8Mn12Zn4O32,56,0,198,572.2723984492344,4.318832392663504,10.219149972307758,1.56963234,-7.171483083214285,-2.018102850389983,0.0,1.5525,1.0
mp-34148,Li4Mn2Cl8,14,3,74,284.15854842679283,2.46174356771433,20.297039173342345,3.09716706,-8.135626407142857,-1.840411679688013,0.0,1.926699999999999,0.0
mp-754966,Li4Mn2F12,18,1,136,179.14439928508614,3.389041675863908,9.95246662694923,-2.42939467,-5.586542957407407,-2.8684345934738182,0.0,2.7177,0.0
mp-1210796,Li8Mn4Ge4O16,32,3,31,373.8913622088035,3.649941994258792,11.68410506902511,1.53247792,-6.9417470809375,-2.267405468387212,0.0,2.0368,1.0
mp-18988,Li8Mn4O12,24,4,12,195.4673833959864,3.969588299469367,8.144474308166098,2.45687681,-6.817403403333334,-2.180112729932952,1.0,1.368399999999999,1.0
mp-559240,Li8Mn4Si4O16,32,3,31,350.3860667930348,3.05018930297962,10.949564587282335,2.63003593,-7.464712298437499,-2.690084414012211,0.0,2.176599999999999,1.0
mp-1105291,Li4Mn2Sn2S8,16,4,7,350.46866885516187,2.992459829740632,21.904291803447617,2.98111695,-5.287633780625,-1.094774886824711,0.0,0.070699999999999,0.0
mp-675779,Li4Mo6S8,18,5,1,295.8116216570478,4.82718491013998,16.4339789809471,6.89852915,-7.02278475833333,-1.144092054629625,0.0,1.354,0.0
mp-22439,Li4Mo2F12,18,1,136,195.71549415325063,3.797852257735345,10.873083008513923,0.48295094,-8.443145497777778,-2.931861057037036,0.0,1.7655,0.0
mp-694855,Li4Mo2O6,12,5,2,106.85051064082089,4.905294434755955,8.904209220068406,3.53464081,-7.071758176666665,-2.153861700277776,0.0,1.3636,1.0
mp-1280510,Li4Ni6Te2O16,28,4,12,299.4570997832612,4.941378712665133,10.694896420830757,3.6158683,-6.092773496428571,-1.529541374523809,0.0,0.207799999999999,1.0
mp-556550,Li4Ni2O6,12,4,12,94.05981968799996,4.25723064034632,7.83831830733333,2.53893524,-5.658687998333339,-1.5850437602777832,0.0,1.3307,1.0
mp-841,Li4O4,8,2,194,63.10789545123132,2.414495373744071,7.888486931403914,1.48740273,-5.0786121725,-1.650170236666666,0.0,1.974299999999999,1.0
mp-1198596,Li4P14H54N18,90,5,2,1083.9670485305817,1.176423565885103,12.04407831700646,2.60055468,-5.049245021222222,-0.417241599842592,0.0,2.090499999999999,0.0
mp-22450,Li4Pb2O6,12,4,15,127.42365027123796,7.013112294262959,10.618637522603162,2.8773962600000003,-5.517573629999998,-1.788510993611109,0.0,1.044,1.0
mp-13985,Li4Pd2F12,18,1,136,189.31807552875625,4.11003243090467,10.51767086270868,-1.85438678,-7.45121756,-2.285658211481482,1.0,1.8867,0.0
mp-7608,Li2Pd1O2,5,3,71,51.32696580711932,4.927262391172839,10.265393161423862,2.73987329,-5.411062696000002,-1.6323327853333351,0.0,1.1973,1.0
mp-760483,Li4Pd2O6,12,4,12,107.41088670227718,5.203738011980649,8.950907225189765,1.92717704,-5.605017165,-1.6314154052777772,0.0,1.3654,1.0
mp-983460,Li2Pm1Ga1,4,0,225,74.82094338020576,5.073546472023233,18.70523584505144,2.36895067,-11.773600935,-0.334400625208333,0.0,0.163499999999999,0.0
mp-13986,Li4Pt2F12,18,1,136,192.8919042209868,5.560438143390972,10.716216901165932,-0.99897725,-10.66229992,-2.327044650370371,1.0,2.4964,0.0
mp-531826,Li24Pt12O36,72,4,5,666.1738716940546,7.686265300064132,9.252414884639649,3.01097357,-5.804634323055556,-1.682490645,0.0,1.842,1.0
mp-976955,Li4Ru2F12,18,1,136,190.71535824846333,3.986756332316273,10.595297680470184,0.34432287,-7.9992960661111105,-2.559949863703704,0.0,0.0398,0.0
mp-2286,Li2Se1,3,0,225,52.71669259653644,2.924458277403507,17.572230865512147,0.4075048,-7.813334673333333,-1.451676987465277,0.0,2.9746,0.0
mp-1194726,Li8Se8O28,44,3,62,639.9857605343428,2.94542387019153,14.545130921235064,-1.11869892,-5.662630594545454,-1.5312309833049231,0.0,2.9444999999999992,1.0
mp-1095291,Li4Sn2Se6,12,4,9,308.2782298946624,3.980317975904259,25.68985249122186,1.08467778,-4.1188809525,-1.06635561561632,1.0,1.479699999999999,0.0
mp-8673,Li4Sn2Te2O12,20,3,34,228.829632860771,5.169476923730571,11.44148164303855,3.64841144,-6.0698080605,-2.003959109333333,1.0,2.0439,1.0
mp-1210877,Li8Tc4O12,24,4,15,211.5320295537032,5.020276477958532,8.813834564737633,5.04050279,-6.918091730416666,-2.081030448194444,0.0,0.409,1.0
mp-2530,Li2Te1,3,0,225,69.09284373750016,3.400299879294002,23.030947912500054,2.26399067,-3.498470799999999,-1.178086924444443,0.0,2.4914,0.0
mp-13843,Li8Te4O16,28,1,91,299.6935188813291,4.554077838759675,10.703339960047469,2.10053206,-5.77168709535714,-1.949830574404759,0.0,2.4198,1.0
mp-558731,Li8Te4S12,24,4,14,488.3093272429518,3.232966660380209,20.346221968456323,3.85457011,-4.158398575,-0.929026853472221,0.0,1.5980999999999992,0.0
mp-1976674,Li6Th3N6,15,6,147,194.3625044757757,7.021064271719166,12.957500298385046,4.55047033,-20.558913770666667,-1.25767850683333,0.0,2.6474,0.0
mp-1222778,Li2Ti1I6O18,27,6,143,408.0769193734314,4.521532185604665,15.113959976793756,2.18405391,-5.381958783703704,-1.31082131962963,0.0,2.7776,1.0
mp-768110,Li8Ti12Co4O32,56,0,198,602.1900091517487,3.798857953059038,10.75339302056694,2.32726397,-8.284103774285715,-2.982573306904761,0.0,2.4572,1.0
mp-775865,Li8Ti12Mn4O32,56,0,198,619.9175541017255,3.647417112082733,11.069956323245098,2.46854689,-8.536770440714287,-3.090340075328408,1.0,2.4041,1.0
mp-775326,Li8Ti12Ni4O32,56,0,212,597.2882681597611,3.827367238770961,10.665861931424304,2.9900634,-8.163262985892858,-2.958395378511906,0.0,2.7606,1.0
mp-558619,Li8Ti24Pb4O56,92,3,64,1095.1236162498722,4.44140633358603,11.903517567933394,2.32373704,-8.604016783586957,-3.205108132572463,0.0,2.632399999999999,1.0
mp-759849,Li4Ti12Zn6O32,54,4,4,606.8717681699204,4.122407629528196,11.238366077220748,1.51586719,-7.987437224444444,-3.01938519691358,1.0,2.8926,1.0
mp-756117,Li4Ti2Te2O12,20,3,34,217.9171889313384,4.348690312115743,10.895859446566917,2.77802128,-6.8726946955,-2.418253728166667,1.0,2.4255,1.0
mp-560793,Li2U1Mo2O10,15,5,2,242.0330139105358,4.142444927984764,16.135534260702386,-0.52758721,-8.300839744666666,-2.54882867711111,0.0,2.4115,1.0
mp-558910,Li2U3P4O20,29,5,2,425.1271206947212,4.577232462736722,14.659555886024869,0.90777701,-8.543305119655173,-3.084229603628899,0.0,2.1734,1.0
mp-559539,Li4U6P4O30,44,1,141,638.9695136621382,5.352997893248521,14.522034401412231,2.03229093,-8.804059600909099,-3.224857878679661,0.0,2.2567,1.0
mp-554685,Li4U6V4O30,44,1,141,692.8951442998443,5.1278051604132,15.747616915905551,1.39976825,-8.987901224545455,-3.07520563462121,0.0,2.2782,1.0
mp-1222748,Li2U1Br6,9,6,162,267.8521382961728,4.53388274795321,29.76134869957476,1.06941001,-4.573152052222222,-1.803048168518517,0.0,0.3197,0.0
mp-9607,Li8U4O16,28,3,62,323.34467411144175,6.489402353917839,11.548024075408634,2.701907819999999,-8.129062796071429,-3.1431914013095232,0.0,2.0439,1.0
mp-756138,Li4V6Sb2O16,28,6,166,320.0858484912057,4.321034034165677,11.43163744611449,3.48276991,-7.751825351071429,-2.410235835119048,0.0,1.347899999999999,1.0
mp-776870,Li4V6Sn2O16,28,4,9,306.2077446356342,4.483794355080012,10.93599087984408,3.84040273,-7.762291146785714,-2.429232301190476,0.0,1.2894,1.0
mp-753861,Li4V2F12,18,1,136,183.4291689654293,3.237516695498057,10.190509386968294,-1.20372569,-5.858947303333334,-3.149517741851853,0.0,2.1121,0.0
mp-18860,Li8V4Si4O20,36,1,129,374.8566515002568,3.063754282608405,10.412684763896022,2.45856119,-7.551173471111111,-2.7659651535185192,0.0,2.3621,1.0
mp-1185233,Li2Y1In1,4,0,225,79.68510203657961,4.534637037671413,19.921275509144905,3.90778606,-12.3104989175,-0.394097875833333,0.0,0.047899999999999,0.0
mp-1222618,Li2Zn1Cd1P2,6,6,160,102.9025655381206,4.093143272219594,17.150427589686768,2.879425099999999,-9.224945521666667,-0.592752897380952,1.0,1.0652,0.0
mp-1210804,Li4Zn2Ge2S8,16,3,31,328.2531519136537,2.834812698049025,20.51582199460336,3.44060332,-4.417332415,-1.135575481458332,1.0,2.1846,0.0
mp-555965,Li12Zn6Sn18O48,84,3,36,949.4965867151916,5.912025112751361,11.30353079422847,3.56328371,-6.182387772261904,-2.133102561666666,0.0,1.943,1.0
mp-555186,Li4Zn2Sn2S8,16,4,7,352.33512162435875,3.075305884410742,22.020945101522425,1.650945479999999,-4.354258114375,-1.149183180833332,1.0,2.1758,0.0
mp-3216,Li2Zr1N2,5,6,164,50.574810329420224,4.370752214047623,10.114962065884043,4.05832841,-10.518408818,-1.362267603166667,0.0,1.5618999999999992,0.0
mp-757,Li6As2,8,2,194,126.43290177520576,2.51497270858603,15.80411272190072,1.37594068,-6.30814512625,-0.841232569375,0.0,0.6364999999999991,0.0
mp-1199218,Li12As28H156N52,248,3,33,3046.6521005222216,1.671457112007646,12.284887502105732,0.5629593900000001,-4.928599398508064,-0.42494249328629,1.0,1.8092,0.0
mp-28471,Li12As4S12,28,3,33,524.7184121092278,2.429670443210828,18.73994328961528,1.73764502,-4.400070605000001,-1.141217771428571,0.0,2.3133,0.0
mp-7471,Li12Au4O12,28,1,136,293.2172005031508,6.02080605219084,10.47204287511253,0.77384911,-5.077512329642857,-1.671150384642856,0.0,1.8503,1.0
mp-15999,Li6Au2S4,12,3,72,203.4695803998732,4.601557216007569,16.955798366656097,1.88519563,-4.085752230000001,-1.2061906075,1.0,2.0985,0.0
mp-23222,Li3Bi1,4,0,225,74.88789412092665,5.095583576182748,18.72197353023166,2.90571406,-17.043427615,-0.6278293687499991,0.0,0.342899999999999,0.0