material_id,composition,nsites,crystal_system,space_group,volume,density,density_atomic,efermi,energy_per_atom,formation_energy_per_atom,is_gap_direct,band_gap,is_oxide
mp-18940,Sr4Ni2Mo2O12,20,1,87,253.890917647127,5.570687181240576,12.69454588235635,3.08006402,-7.450212725499999,-2.480371825499999,0.0,2.3095,1.0
mp-1195664,Sr8P28Br4,40,0,198,967.3116536446686,3.240769692124358,24.182791341116715,3.4624902,-5.070630200249998,-0.7776184609999971,0.0,2.133099999999999,0.0
mp-1194705,Sr16P56Cl8,80,4,15,2005.124316423132,2.832326932065758,25.06405395528915,3.36184231,-5.149113200124999,-0.834941834374998,0.0,1.948,0.0
mp-1195270,Sr8P28I4,40,0,198,1010.9933825719852,3.409536418067648,25.27483456429963,3.79458042,-4.989048588,-0.7073302407499991,0.0,2.105799999999999,0.0
mp-4359,Sr2Pd1O3,6,3,71,90.81177964681468,6.027965995755455,15.135296607802443,3.05120574,-6.295895815000001,-2.394458980833334,0.0,0.2353,1.0
mp-541114,Sr8Rh4F28,40,4,14,554.9501983890095,4.920835101579739,13.873754959725238,0.7689099500000001,-10.88697360625,-3.25599896425,0.0,1.85,0.0
mp-4103,Sr4Sb4O14,22,3,74,300.3055962231564,5.869625819890577,13.650254373779832,3.65151314,-6.7772064899999975,-2.570062335909088,0.0,1.370399999999999,1.0
mp-1105180,Sr4Sb4Se6O4,18,4,14,444.1562895952408,5.141663499352949,24.67534942195782,4.74813281,-5.38683541,-1.8283337318923607,1.0,0.7681999999999991,1.0
mp-16897,Sr16Sb24,40,4,14,1355.122239838989,5.298737190736542,33.87805599597472,4.67891829,-4.06810163575,-0.9137296557499992,0.0,0.155899999999999,0.0
mp-1105158,Sr4Sc2Ga2O10,18,3,46,263.0145802718084,4.670918415231355,14.61192112621158,4.75642997,-7.363704693333334,-3.198679545277778,0.0,2.765899999999999,1.0
mp-1208760,Sr4Sc2Nb2O12,20,4,14,270.5625068742748,5.02157056429574,13.52812534371374,5.08714107,-8.4507531375,-3.500113502,0.0,2.942,1.0
mp-1106,Sr8Si4,12,3,62,400.7831001280795,3.369702324055887,33.39859167733996,2.80569404,-13.454768615,-0.433073036666667,1.0,0.343399999999999,0.0
mp-1104926,Sr4Si2S8,14,4,11,345.409846619529,3.188158542999471,24.672131901394927,2.713063039999999,-11.964072897142858,-1.791918173750001,0.0,2.8995,0.0
mp-978,Sr8Sn4,12,3,62,459.453449415436,4.249531344236076,38.28778745128633,3.29581967,-19.073301815,-0.727466508333333,0.0,0.152399999999999,0.0
mp-4287,Sr8Sn4O16,28,1,138,418.3856102043846,5.682661727350975,14.942343221585164,2.94036817,-6.669028192857142,-2.785275042142856,0.0,2.6531,1.0
mp-17676,Sr8Sn4S12F8,32,3,62,693.0163860293587,4.103488517177864,21.65676206341746,2.59612953,-5.421889795625,-2.467238359687499,1.0,2.0801,0.0
mp-30294,Sr4Sn2S8,14,3,40,383.2287284740521,3.658891660345114,27.37348060528944,2.28498247,-14.05422161,-1.6002927173214272,0.0,2.4784,0.0
mp-1218773,Sr8Sn4S20,32,3,18,764.3274466905207,3.947739350436545,23.88523270907877,4.51765985,-13.3245294396875,-1.422966773320313,1.0,1.005499999999999,0.0
mp-568525,Sr16Sn8Se40,64,3,18,1771.670219130998,5.164375490520945,27.682347173921844,3.30895425,-17.18473135390625,-1.360317969570314,1.0,1.2442,0.0
mp-1206645,Sr4Ti2Mn2O12,20,1,87,236.3324321724423,5.256243726183258,11.816621608622116,3.42550504,-8.040935327000001,-3.027922375126438,1.0,0.9884,1.0
mp-5532,Sr2Ti1O4,7,1,139,95.59542788402864,4.987146509547847,13.656489697718376,2.51677959,-7.88231787,-3.443433267619047,0.0,1.9141999999999992,1.0
mp-1192478,Sr4V6H2O18,30,4,11,397.416854087198,3.953261131036313,13.247228469573267,1.84930488,-7.950320090000001,-2.712760765083334,0.0,1.958899999999999,1.0
mp-17012,Sr8V4N12,24,4,15,387.54053875295006,4.596775717531164,16.147522448039584,2.90078147,-13.308757045416668,-1.347565398125001,0.0,1.518399999999999,0.0
mp-9306,Sr2Zn1N2,5,1,139,95.3645354122104,4.678095572931343,19.07290708244208,2.58442111,-12.213631898,-0.7217466805,0.0,0.5344,0.0
mp-1189305,Sr6Al4As8,18,4,15,486.407246320169,4.2093865976079,27.022624795564944,3.44392026,-14.23590076,-1.154644779999999,1.0,1.1456,0.0
mp-17129,Sr12Al8N16,36,3,52,566.2227940193515,4.373768019282196,15.728410944981984,3.876778449999999,-11.834395023333334,-1.232596961666667,0.0,1.9055,0.0
mp-9843,Sr6Al4P8,18,4,15,449.1035680243118,3.259068581765055,24.95019822357288,3.79002962,-11.708680888333332,-1.163182541878307,1.0,1.3365,0.0
mp-1218347,Sr9B6N12,27,0,221,447.1870266493577,3.7932327945044033,16.562482468494732,1.99280291,-12.033902542222222,-1.295603176666666,1.0,1.9096,0.0
mp-30239,Sr6B4S12,22,4,15,516.6651644623379,3.065291179798121,23.48478020283354,2.44351135,-5.600755979090909,-1.6674627775757571,0.0,2.3176,0.0
mp-1192011,Sr6Co4O12,22,6,167,284.9079111990537,5.557001301943329,12.950359599956984,2.982329769999999,-6.77347794090909,-2.316033964545454,0.0,1.3059,1.0
mp-18924,Sr3Fe2O6,11,1,139,151.49344793192236,5.157719297531043,13.77213163017476,3.27917437,-7.215234959090909,-2.514771984545455,0.0,0.3201,1.0
mp-1189054,Sr6Ga4As8,18,4,15,487.58969188753065,4.781421035148443,27.08831621597393,3.08756642,-15.16897628611111,-1.040903057222222,0.0,0.6766999999999991,0.0
mp-16945,Sr12Ga8N16,36,3,52,584.9324232791039,5.204563738406487,16.248122868863998,2.96503237,-12.446143610555556,-0.7975283000000011,1.0,1.5856,0.0
mp-1106227,Sr6Ga4P8,18,4,15,449.9461747508001,3.883919660274022,24.99700970837778,3.42507058,-12.614594509444444,-1.022278914100529,0.0,1.067199999999999,0.0
mp-17504,Sr12Ge8As16,36,4,14,994.49694540092,4.727509300079346,27.62491515002556,2.66476089,-15.613000441944443,-0.9451046286111092,0.0,0.8754999999999991,0.0
mp-18351,Sr12Ge8P16,36,4,14,918.9496606225392,3.8455424485641823,25.526379461737204,3.27917653,-13.052674435277778,-0.920536255489418,1.0,1.0635,0.0
mp-28324,Sr6In4P8,18,3,58,487.6096056454092,4.198200378566116,27.089422535856063,3.9820471,-4.388825428333336,-0.804655888544974,1.0,0.5893,0.0
mp-11677,Sr6Si4As8,18,4,15,489.0383590083518,4.201733442621964,27.16879772268621,3.10171228,-14.521994010555554,-0.98703441611111,1.0,0.9176,0.0
mp-1195093,Sr12Sn8As16,36,4,14,1080.0894924532824,4.919501461495123,30.002485901480068,4.19851574,-18.046600461388888,-0.962214381388889,0.0,0.752999999999999,0.0
mp-571291,Sr36Sn24P48,108,3,64,3019.221680216543,4.11947380369868,27.955756298301324,4.11478442,-15.45842710611111,-0.909798659656082,0.0,0.9885,0.0
mp-1029733,Sr6Al6N10,22,5,2,322.8565549434943,4.256963955118123,14.675297951977011,4.06378094,-11.432549024090909,-1.316455246249999,0.0,2.142299999999999,0.0
mp-1192533,Sr12Al4As12,28,3,64,808.4378500884791,4.228025340831158,28.872780360302823,2.67577861,-15.012201768928572,-1.2562482685714271,1.0,0.9824,0.0
mp-17667,Sr12Al4Sb12,28,3,64,971.9807572165691,4.47685779842661,34.71359847202033,3.6357493,-3.98814253,-0.958161984285714,1.0,0.5371,0.0
mp-15339,Sr6As8,14,3,43,404.25358395338986,4.6215064556256085,28.875255996670703,2.90668447,-16.02776293642857,-1.132461913571429,0.0,0.616699999999999,0.0
mp-1013555,Sr3As1N1,5,0,221,132.31336935948244,4.414959864983109,26.462673871896488,3.07526231,-14.906711974,-1.052059000250003,1.0,0.4218,0.0
mp-9702,Sr6B2P2O6,16,2,194,311.95703682891855,3.754218343109072,19.49731480180741,2.62252477,-6.589790245625,-2.587786172976191,0.0,2.0101,1.0
mp-1208816,Sr12Ca4C4N16,36,3,62,662.913966948857,3.7170392612892,18.414276859690474,4.16791229,-6.418724205277778,-0.9004285805555561,1.0,1.4804,0.0
mp-862670,Sr6Co2C6N6,20,2,176,357.4377996668862,3.715101758215746,17.87188998334431,3.11720929,-7.2059852865,-0.714832216249999,0.0,1.1035,0.0
mp-1284324,Sr6Co2Ru2O12,22,5,2,306.8570820236889,5.615556414052329,13.94804918289495,3.95159855,-7.03071716409091,-2.378638113181819,0.0,0.151599999999999,1.0
mp-7214,Sr24Cr8N32,64,3,61,1097.7997567594086,4.487999133116024,17.15312119936576,2.57513583,-13.21277179265625,-1.08460575703125,1.0,1.5373,0.0
mp-556960,Sr6Fe4Se12O36,58,6,167,923.7419061527507,4.085273603759863,15.92658458884053,1.32208124,-6.465137889482758,-1.911479487898706,1.0,2.4393,1.0
mp-570971,Sr6Ga6N10,22,5,2,339.0322749193775,5.309913093099539,15.410557950880795,3.16183522,-12.177221919545456,-0.776397881704547,1.0,1.361899999999999,0.0
mp-30158,Sr6Ga8O18,32,5,2,487.2518818714102,4.674005628114282,15.226621308481567,0.64568745,-6.579841153749998,-2.722258815937498,0.0,2.8947000000000003,1.0
mp-1194661,Sr24Ga8As24,56,3,62,1616.503503153661,4.580245171274894,28.866133984886805,3.24519259,-15.631551496071427,-1.202644050000001,1.0,0.7012,0.0
mp-7191,Sr6Ga2N6,14,2,176,269.61664902533033,4.61427797035654,19.25833207323788,2.38766227,-12.845250575714289,-0.8072489794642881,0.0,0.5667000000000001,0.0
mp-542625,Sr24Ga8Sb24,56,4,14,1917.288288619944,4.835282337092023,34.23729086821328,3.57389363,-3.877118164285714,-0.9496347339285712,0.0,0.339399999999999,0.0
mp-30950,Sr12Ge4O4,20,3,62,517.9996391565651,4.507172912605396,25.899981957828253,3.56159972,-4.488673586500001,-1.5590189605,1.0,0.3188,1.0
mp-1304797,Sr12In4Ni4O24,44,4,14,597.7331053441171,5.915801027557029,13.58484330327539,3.33076911,-6.349188225909091,-2.412428160151515,0.0,0.6869999999999991,1.0
mp-616026,Sr12In4P12,28,3,62,778.618785565936,4.014537093651413,27.807813770212,3.58136497,-4.377863323214287,-0.9374520961564632,1.0,0.8115999999999991,0.0
mp-669389,Sr6In2Rh2O12,22,6,167,317.2428204220284,6.03596606342515,14.42012820100129,4.40030663,-6.566465028636364,-2.485689400151514,0.0,1.5007,1.0
mp-567371,Sr3Li4Ge2N6,15,4,12,199.4543778143872,4.328747586355586,13.296958520959144,2.9730493,-5.519768662666665,-0.720522134888888,0.0,2.0534,0.0
mp-1104857,Sr3Li4Si2N6,15,4,12,188.077732690613,3.803845732462569,12.538515512707534,5.98643289,-5.946527102666666,-1.040308551555555,0.0,2.107,0.0
mp-1192357,Sr12Li4As8H4,28,3,62,687.1974474452362,4.065843460366215,24.542765980187006,2.26704998,-3.831359145,-1.013985053511904,0.0,1.4556,0.0
mp-6721,Sr6Li2Ru2O12,22,6,167,307.2716927226245,5.046033038401567,13.96689512375566,3.28000599,-6.758855225454545,-2.5817301612121213,1.0,0.5632,1.0
mp-567398,Sr12Mg4Ge4N16,36,3,52,592.0385254639765,4.665270379108885,16.44551459622157,3.16988568,-5.787207885833333,-0.8223308725,1.0,1.724699999999999,0.0
mp-570046,Sr18Mo6N24,48,4,15,905.409329507984,4.564804568428675,18.862694364749668,2.31514282,-7.258605002916666,-1.099099332916666,0.0,2.0559,0.0
mp-1853,Sr6P28,34,4,14,809.2224187572491,2.858431150710388,23.800659375213208,3.70108228,-10.62940290882353,-0.543164580686272,0.0,1.8291,0.0
mp-32635,Sr24P16,40,1,122,1222.0612098452532,3.530792588013914,30.55153024613133,2.9514130400000003,-13.905198664,-1.216971497190476,1.0,0.3946,0.0
mp-14288,Sr6P8,14,3,43,366.17862612291646,3.5076971761491142,26.155616151636888,3.61388811,-12.742934245714284,-1.107893037414965,0.0,0.8898,0.0
mp-1013554,Sr3P1N1,5,0,221,129.49301741662526,3.94755735582669,25.89860348332505,3.12298859,-13.66628144,-0.95271940134524,1.0,0.519699999999999,0.0
mp-29295,Sr12Sb16S36,64,3,33,1663.2902105360477,4.147069228580007,25.988909539625745,4.28377999,-4.9364316384375,-1.259023804843749,1.0,1.0677,0.0
mp-1208807,Sr12Sb4I12,28,0,214,1213.5584442936197,4.18889104931055,43.341373010486414,2.58133282,-3.682898631428571,-1.714566723571428,1.0,1.4793999999999992,0.0
mp-7752,Sr3Sb1N1,5,0,221,140.19996748628466,4.72136492046329,28.039993497256933,3.7761158,-4.536857728000001,-1.027945077000001,1.0,0.257699999999999,0.0
mp-18247,Sr6Sc2Rh2O12,22,6,167,308.06456934487744,5.462651705500749,14.002934970221702,3.72257965,-7.349915895454544,-2.944295234090908,0.0,2.258099999999999,1.0
mp-30949,Sr12Si4O4,20,3,62,515.312261967182,3.956389438884266,25.765613098359104,3.46920082,-4.5339772285,-1.443864567499999,1.0,0.4234,1.0
mp-3349,Sr3Ti2O7,12,1,139,155.59136359944824,5.022340116866562,12.965946966620686,2.91489648,-8.117861359999972,-3.4925284151388603,0.0,1.8404999999999991,1.0
mp-22391,Sr3V2O7,12,1,139,149.4557598679317,5.296841036193913,12.454646655660977,3.73462449,-7.790599324166671,-2.9671973704166703,0.0,0.5565,1.0
mp-18498,Sr6Y2Rh2O12,22,6,167,322.72653871445533,5.666750030748338,14.669388123384334,3.44904798,-7.334560195454546,-2.912882952727273,0.0,2.1512,1.0
mp-1298662,Sr12Zn4Co4O24,44,4,5,597.3323558774631,5.373023148863743,13.575735360851434,2.07320566,-6.312580742727272,-2.389107049090908,0.0,1.2648,1.0
mp-759747,Sr12Ni9O27,48,6,150,617.8633553945658,5.406449979470377,12.872153237386788,2.92505009,-6.370364525625,-2.0802538103125,0.0,1.3317,1.0
mp-554152,Sr16Al24Cr4O64,108,3,33,1736.9829295761483,3.137008931143453,16.083175273853225,1.7237479800000002,-7.623968710370371,-3.251243121851852,0.0,2.254099999999999,1.0
mp-9392,Sr4Al6Te1O12,23,0,217,424.5930568597537,3.253716548304334,18.46056768955451,1.8677129,-7.341150237391304,-3.351497833333332,0.0,2.838,1.0
mp-8299,Sr4As2O1,7,1,139,192.89810551874788,4.4446981268313,27.556872216963985,2.53445874,-4.709829844285715,-1.701555782857144,0.0,1.192399999999999,1.0
mp-29424,Sr32As24,56,3,55,1731.8365228506282,4.412501760552795,30.925652193761216,2.72132361,-16.285861979107143,-1.327970944464285,0.0,0.8578000000000001,0.0
mp-567601,Sr16C4N16,36,3,62,677.3710257433166,4.103893626351333,18.81586182620324,2.81763472,-6.326724352500001,-0.843225593333335,0.0,1.2186,0.0
mp-766217,Sr8Cu4O14,26,4,14,360.86229268752993,5.42589449852623,13.879318949520382,2.33789451,-6.156802914230767,-2.341121934615382,0.0,0.7570999999999991,1.0
mp-1218333,Sr4Fe1Mo1O8,14,3,65,202.87774975850004,5.15863215886877,14.49126783989286,3.32217237,-7.396320703571429,-2.7056727235714293,0.0,0.720599999999999,1.0
mp-1201546,Sr32Ge8As32,72,0,218,2124.0249562126223,4.520655979216684,29.5003466140642,2.62143097,-15.976166824444444,-1.166750623333333,1.0,0.8140000000000001,0.0
mp-14213,Sr32Ge8P32,72,0,218,1971.578806796353,3.685735935447788,27.383038983282685,3.05561738,-13.392146875416666,-1.118488307850528,1.0,1.044699999999999,0.0
mp-9723,Sr4Li1B3N6,14,0,229,210.3570270279483,3.740877324866368,15.025501930567737,2.35822983,-6.876735227857142,-1.251986870059524,0.0,2.0686,0.0
mp-1218681,Sr12Mn6Cu3O27,48,5,1,624.2904272522144,5.329579781061246,13.006050567754466,3.01883438,-7.103882157708334,-2.496094741512214,0.0,0.6674000000000001,1.0
mp-558114,Sr16Nb4Al4O32,56,4,14,845.73609271804,4.699363515418359,15.102430227107858,2.79326145,-7.596248764821428,-3.296228674107142,0.0,2.961999999999999,1.0
mp-8298,Sr4P2O1,7,1,139,185.3628959651904,3.837983005071672,26.48041370931291,2.6742856,-4.855025417142857,-1.633793929183673,0.0,1.2134,1.0
mp-29775,Sr8Pd2O12,22,6,167,326.3988833354515,5.625669197151822,14.83631287888416,2.36676282,-6.36669934681818,-2.581484783181816,1.0,1.4647,1.0
mp-755293,Sr4Sb2O1,7,1,139,215.4009946835376,4.702521619228042,30.7715706690768,3.42636688,-4.578430149999998,-1.7247621721428552,0.0,0.7118000000000001,1.0
mp-1196120,Sr32Si8As32,72,0,218,2086.6482849537792,4.31798223041934,28.9812261799136,2.92714578,-15.449700212361112,-1.206752120694444,1.0,1.149499999999999,0.0
mp-1208796,Sr32Si8P32,72,0,218,1934.4336132566696,3.450541238164634,26.867133517453745,3.07403012,-12.89325838625,-1.186067928128306,1.0,1.3242999999999991,0.0
mp-15501,Sr32Ti8As32,72,0,218,2160.503305674021,4.2920063207402,30.00699035658362,2.22059642,-16.03998848597222,-1.334374570046296,1.0,1.3516,0.0
mp-1029799,Sr8Ti2N8,18,5,2,332.657429718562,4.5362308389013215,18.48096831769789,3.94850537,-13.369285555555557,-1.143129557962963,0.0,1.0129,0.0
mp-15500,Sr32Ti8P32,72,0,218,2014.560804596813,3.443741468399118,27.98001117495574,2.55161327,-13.469223775416667,-1.299367493035714,1.0,1.4294,0.0
mp-1029580,Sr8Zr2N8,18,5,2,358.0462788046352,4.616729663044729,19.89145993359084,2.47132574,-14.45446263388889,-1.138080537222224,0.0,0.8613000000000001,0.0
mp-28392,Sr20Al8Sb24,52,3,62,1720.6420801570066,4.719664610857484,33.089270772250124,4.23045819,-4.021713052692307,-0.8888438565384601,0.0,0.7905999999999991,0.0
mp-1195596,Sr20Co8N16,44,1,130,948.158152338801,4.287211360178353,21.54904891679093,2.83115387,-5.750414626590909,-0.652043274772727,0.0,0.2075,0.0
mp-571046,Sr10Ge4N12,26,4,15,456.5382501587851,4.85513455029244,17.559163467645583,2.88041216,-6.004384457692307,-0.79377964,0.0,1.3525,0.0
mp-1195789,Sr30I12O72,114,6,167,1715.1321152095993,5.134601669305274,15.04501855447017,4.68270547,-6.079643827105264,-2.348817630263159,0.0,2.3981,1.0
mp-649033,Sr10In4Sb12,26,3,55,898.5212852981413,5.168325275455368,34.55851097300543,4.35327108,-3.869326360384616,-0.8882113314102561,0.0,0.0533,0.0
mp-1197996,Sr10Sb44O76,130,4,14,2421.758300331609,5.108000468019755,18.62891000255084,3.30527694,-6.464547534230769,-2.044198520076922,0.0,2.5443,1.0
mp-1029868,Sr10Si4N12,26,4,15,433.5365480001954,4.430114806615534,16.67448261539213,3.74430117,-12.593065992692308,-1.20473225673077,0.0,1.405999999999999,0.0
mp-1194401,Sr10Sn4As12,26,3,55,762.6036820926538,4.899501160383132,29.33091084971745,3.490296449999999,-17.488150322692306,-1.067699643076922,0.0,0.0702,0.0
mp-24338,Sr10As6H2,18,2,193,496.421587391559,4.441332319221898,27.578977077308835,3.27276349,-14.937461994444444,-1.236794137361111,0.0,0.676399999999999,0.0
mp-2751389,Sr10As6O26,42,2,176,653.6713502893114,4.424523330514773,15.563603578316938,1.98139825,-6.8033991302380965,-2.670256220119049,1.0,1.5598,1.0
mp-1179227,Sr10Cr6Cl2O24,42,2,173,675.6921902751047,4.037902131260827,16.0879092922644,3.07635136,-7.388371746428571,-2.690973759761904,0.0,1.1425,1.0
mp-18859,Sr10Cr6O24F2,42,2,176,635.2545428295176,4.208914306469722,15.125108162607562,1.76890838,-7.486115675,-2.785607708571428,0.0,1.0321,1.0
mp-1218639,Sr5Mn4C1O13,23,4,6,306.62922543220805,4.753991251481509,13.331705453574262,2.74093911,-7.7586168430434785,-2.599383791922789,0.0,0.6452,1.0
mp-31231,Sr10Mo4N14,28,5,2,501.3990328660013,4.822175671442805,17.907108316642905,3.64811977,-7.409044341428571,-1.086088278214286,1.0,1.2258,0.0
mp-761057,Sr10Nb8O30,48,6,165,650.5044781132135,5.359210732480254,13.552176627358614,1.81847153,-8.427147768124998,-3.298532114583332,0.0,2.8004,1.0
mp-10577,Sr20Nb4N20,44,3,57,861.1892982753478,4.635683250236905,19.57248405171245,2.88643266,-6.519678418863637,-1.0419662175,1.0,1.2468,0.0
mp-1208610,Sr10P6O26,42,2,176,604.7809293314407,4.058199274252333,14.399545936462872,1.5799664,-7.485205321428571,-3.245583698044218,0.0,0.4068,1.0
mp-1218652,Sr10V6O26,42,2,173,655.339415395679,4.048687932216505,15.603319414182833,0.72858691,-7.727517328809524,-2.963833913333334,1.0,0.5547000000000001,1.0
mp-29136,Sr12Cu6N10,28,1,105,548.1884947613943,4.764178087905891,19.57816052719265,3.38766002,-12.694810850357143,-0.6192317234821441,0.0,0.4772,0.0
mp-16061,Sr24Sb24S68,116,3,19,3058.141466465428,3.912533411928158,26.36328850401231,3.50399121,-4.966740589482757,-1.336372016120688,1.0,1.8482,0.0
mp-568436,Sr28Ge4N24,56,3,60,1078.596827933212,4.74189647533553,19.2606576416645,2.90087128,-5.488652852142857,-0.738674926785714,0.0,1.133499999999999,0.0
mp-676818,Sr24Ti21S63,108,6,143,2460.961837838729,3.46025136217206,22.78668368369194,4.10353826,-6.301307073333333,-1.975934302384257,0.0,0.0443,0.0
mp-1197208,Sr18Mn10Co4O42,74,6,167,993.5388030506508,5.071253760898381,13.426200041225009,2.54511747,-7.373712428243243,-2.530038271071761,1.0,1.790399999999999,1.0
mp-555609,Sr9Zn4Cu2O14,29,4,12,461.6150546251065,5.040807717375507,15.917760504314018,2.07688777,-5.862463462413793,-2.492094681034483,1.0,1.7851,1.0
mp-10667,Sr2Ag2P2,6,2,194,140.07673041247585,5.369184930181552,23.34612173541264,4.27974441,-16.033280816666664,-0.86540930765873,1.0,0.112599999999999,0.0
mp-1080438,Sr2Ag2Te2F2,8,1,129,188.27367349055643,6.034281461051804,23.53420918631956,3.770317829999999,-4.55828642375,-2.160155414583333,1.0,1.284699999999999,0.0
mp-980057,Sr1Al1Ge1H1,4,6,156,78.27935264356545,3.993334167002414,19.56983816089136,4.09667939,-3.9092531925,-0.5452036390625,0.0,0.723399999999999,0.0
mp-570485,Sr1Al1Si1H1,4,6,156,76.91066305597447,3.102445306782665,19.227665763993617,4.434959819999999,-4.0232626175,-0.4586405203125,0.0,0.625699999999999,0.0
mp-1216184,Y2Cu6S6,14,6,148,244.0571509578096,5.112974865237336,17.432653639843544,5.35617365,-11.998529982142855,-1.004389095491072,0.0,1.4195,0.0