material_id,composition,nsites,crystal_system,space_group,volume,density,density_atomic,efermi,energy_per_atom,formation_energy_per_atom,is_gap_direct,band_gap,is_oxide
mp-1194023,Ba2Co4P4O16,26,4,14,388.9958821397727,3.800379084660421,14.961380082298948,1.21513299,-7.687049056923077,-2.563938020714286,0.0,2.284099999999999,1.0
mp-19203,Ba4Co8Si8O28,48,4,15,661.5232135622543,4.250832746760687,13.7817336158803,3.34272351,-7.818173597083333,-2.6788259741666662,0.0,0.044799999999999,1.0
mp-19086,Ba3Co3O6,12,6,152,202.5097867321428,5.615032013268026,16.875815561011894,2.85091042,-6.812026236666665,-2.074947819166665,1.0,0.3967,1.0
mp-19278,Ba2Co2P4O14,22,5,2,301.6934852748219,4.075244815659921,13.713340239764632,1.64383526,-7.709688644545455,-2.753409940389611,0.0,2.418199999999999,1.0
mp-541137,Ba4Cr8O16,28,3,59,382.5245244418224,5.301521253614749,13.661590158636512,2.95635865,-8.462594923214283,-2.603035794642854,1.0,2.2386,1.0
mp-572430,Ba8Cr16O56,80,4,15,1287.088286987021,3.646639418585245,16.088603587337765,-1.14219937,-7.691524560375001,-2.105444868875,1.0,2.6252,1.0
mp-1029770,Ba4Cr4N8,16,3,64,265.0919368016415,5.445593754413674,16.568246050102594,4.65772022,-8.046926353125,-0.984781878125,0.0,0.0102,0.0
mp-18571,Ba4Cr4O16,24,3,62,373.1959993673475,4.508611233148852,15.549833306972811,0.00978253,-7.688646142500008,-2.46133507083334,0.0,2.9695,1.0
mp-19110,Ba2Cr2P4O14,22,5,2,306.7090788761364,3.933487008903885,13.94132176709711,4.63287435,-8.075307480454546,-2.889971435389609,0.0,0.0343,1.0
mp-9639,Ba2Cu2Se4O12,20,4,15,331.7367537315327,4.552980984354463,16.586837686576636,1.7358219300000002,-6.0030099515,-1.73323289196875,0.0,0.3659,1.0
mp-17947,Ba3Cu6Ge3S12,24,6,152,530.8754911051351,4.3664497092684,22.11981212938063,4.07895182,-4.969327109583333,-1.057595308958333,0.0,0.973599999999999,0.0
mp-17252,Ba3Cu6Ge3Se12,24,6,152,618.3296863282166,5.260127339908696,25.76373693034236,3.23217502,-4.542603667916668,-0.952095912213542,0.0,0.3567,0.0
mp-17954,Ba3Cu6Sn3S12,24,6,152,567.987043038227,4.485215410128759,23.66612679325945,4.36887867,-4.887482131666666,-1.052432331041666,0.0,0.384299999999999,0.0
mp-12364,Ba2Cu4Sn2Se8,16,3,40,437.9902632102209,5.299959512046295,27.374391450638807,3.26571237,-4.489435676249999,-0.975609920546874,0.0,0.452999999999999,0.0
mp-27424,Ba2Cu8S6,16,3,63,288.22781207768986,5.619546983876272,18.014238254855616,5.45975596,-4.66504713125,-0.823687090937498,0.0,0.030799999999999,0.0
mp-6571,Ba4Cu4As8O28,44,4,14,677.4477896731339,4.536741365443652,15.396540674389406,1.77434015,-6.515095888636363,-1.970172824090908,0.0,0.6804999999999991,1.0
mp-9195,Ba2Cu2Se2F2,8,1,129,168.0810835441171,5.904545697556149,21.01013544301464,3.85433275,-5.09518990875,-2.238203543085938,1.0,1.4265,0.0
mp-9503,Ba2Dy2Cu2Te6,12,3,63,380.67896341561743,6.509681574336711,31.72324695130145,4.61224519,-4.794453870000001,-1.450041400277777,0.0,0.5186000000000001,0.0
mp-1102849,Ba2Er2Ag2Se6,12,3,63,332.2493869819804,6.490575144013352,27.68744891516503,2.68332934,-5.066844673333334,-1.7639503631163191,0.0,1.3771,0.0
mp-14969,Ba2Er2Cu2S6,12,3,63,274.7663079213209,5.612282881480234,22.897192326776743,3.87834942,-5.791200730833334,-1.957704210416666,0.0,1.157499999999999,0.0
mp-1101781,Ba2Er2Cu2Se6,12,3,63,307.89012561345135,6.526003779823118,25.657510467787613,3.55432376,-5.3194655866666665,-1.8071931111718744,0.0,0.9489,0.0
mp-1080821,Ba2F6,8,4,11,143.6465255395852,4.492689528503932,17.95581569244815,-2.17887995,-5.10831957,-3.19318655375,0.0,0.7896000000000001,0.0
mp-1190858,Ba1Fe2P4O14,21,5,2,281.60710697403056,3.519732996623059,13.409862236858595,0.72112023,-7.868154622857143,-2.639946740408162,0.0,1.7887,1.0
mp-1103865,Ba2Fe4P4O16,26,6,148,337.4504707125336,4.320099295323818,12.978864258174369,2.64470123,-7.96426151423077,-2.635519018021978,0.0,2.1328,1.0
mp-561035,Ba2Fe4Se8O24,38,4,13,590.3279377507968,4.2578999911027005,15.534945730284123,0.8531783,-6.525103255,-1.671514027072368,1.0,1.8294,1.0
mp-1215009,Ba4Fe8Pb4O20,36,3,62,509.5454269895005,6.98979323840502,14.154039638597236,5.21297608,-7.209144754722222,-1.952314815277776,0.0,1.3233,1.0
mp-1194498,Ba2Fe6P6O24,38,3,74,490.2126468673131,3.995597574268714,12.900332812297712,1.75152092,-7.981470419210527,-2.562997197838346,1.0,1.1157,1.0
mp-1227983,Ba1Ga2Ge1S6,10,5,1,241.6497982480905,3.723094554283116,24.16497982480905,2.28882112,-4.967843156,-1.225007931499999,0.0,2.7663,0.0
mp-769971,Ba2Ga8O14,24,4,15,363.52341689578265,4.825666079210323,15.146809037324276,0.47625858,-6.541863574166666,-2.48627306875,0.0,2.5768,1.0
mp-4309,Ba2Ga8S14,24,3,31,556.2945318144618,3.824823524635017,23.17893882560257,2.06512571,-4.841396525,-1.258073524791666,0.0,2.58,0.0
mp-1018095,Ba1Ga1Ge1H1,4,6,156,87.47111903716372,5.32872907554901,21.86777975929093,3.16445959,-3.774595865,-0.5332795509375,0.0,0.0661,0.0
mp-1008506,Ba1Ga1Si1H1,4,6,156,83.72581902162052,4.683446659865512,20.93145475540513,3.35288238,-3.879044827499999,-0.437155969687499,0.0,0.4792,0.0
mp-1018094,Ba1Ga1Sn1H1,4,6,156,99.32264378936176,5.463114043089162,24.83066094734044,3.76941586,-3.629355905,-0.5414035909375,1.0,0.0524,0.0
mp-17143,Ba4Gd8O16,28,3,62,455.25957680345056,7.525789184512779,16.259270600123234,1.99711456,-10.728941319642855,-3.6056465425,1.0,2.8146,1.0
mp-505438,Ba2Gd4Pd2O10,18,1,127,258.0732094693422,8.213398811928617,14.337400526074568,3.59063722,-9.680838214444462,-3.015181963888906,0.0,0.0275,1.0
mp-1202710,Ba4Gd8Sc8O28,48,1,136,681.6015836428928,6.370594836585991,14.200032992560269,5.25514796,-10.22598172375,-3.778324668333332,0.0,2.9688,1.0
mp-1197749,Ba2Gd4Si6O20,32,4,11,445.1121129609695,5.193585384330421,13.909753530030295,2.94051982,-9.5568524996875,-3.5676785271875,0.0,0.145799999999999,1.0
mp-1102297,Ba2Gd2Cu2S6,12,3,63,285.1600217431145,5.291153949617727,23.763335145259543,3.78355684,-7.3761560316666674,-1.957925606249999,0.0,1.0862,0.0
mp-20157,Ba2Gd2Cu2Se6,12,3,63,320.7895062338133,6.159962885594262,26.73245885281777,3.38691974,-6.920022483333333,-1.8230161028385408,0.0,0.8826,0.0
mp-1095273,Ba2Gd2Cu2Te6,12,3,63,386.6692905088784,6.363740886809432,32.22244087573986,4.45120751,-6.390697806666665,-1.469994218333331,0.0,0.503099999999999,0.0
mp-2139,Ba8Ge16,24,3,62,741.2725268258605,5.064587686842674,30.88635528441085,2.264938899999999,-4.251933381250001,-0.5302564979166671,0.0,0.5255000000000001,0.0
mp-28710,Ba4Ge8S20,32,0,227,859.3685018603461,3.423471482862407,26.855265683135816,1.62641984,-5.1275307440625,-1.145427183124999,0.0,2.277999999999999,0.0
mp-1029679,Ba2Ge14N20,36,4,7,516.4872444197325,5.053268953007086,14.346867900548126,2.67727608,-6.891897073055555,-0.355066663333333,0.0,2.1552,0.0
mp-1029743,Ba16Ge16N32,64,3,61,1045.9830367074549,6.044851396887332,16.343484948553982,3.41969702,-6.40379583140625,-0.59915626015625,0.0,2.4971,0.0
mp-1195469,Ba8Ge8S24,40,4,14,1100.0027687662705,3.697401324024579,27.500069219156764,1.63119904,-5.224138662749996,-1.432722363249995,0.0,2.4497,0.0
mp-23715,Ba4H8,12,3,62,225.6063319266837,4.1024432943265055,18.800527660556977,-0.07323745,-3.507849477500001,-0.6047468716666671,0.0,2.8697,0.0
mp-23862,Ba2H2I2,6,1,129,177.91030492741652,4.951263531211693,29.651717487902754,1.992644219999999,-3.678794010000002,-1.399409345416668,1.0,2.811099999999999,0.0
mp-10322,Ba2Hf2N4,8,1,129,143.91670443254245,7.934364724872101,17.989588054067806,3.37402275,-8.65930405375,-1.52112418875,0.0,1.2537,0.0
mp-1105549,Ba4Hf4S12,20,3,62,493.2895787527485,5.547751676715811,24.664478937637423,3.05000132,-6.997449220499999,-2.139200685999998,1.0,1.252399999999999,0.0
mp-555736,Ba4Hg8Cl8O8,28,1,127,644.1561321866062,6.613858339360985,23.00557614952165,0.48727674,-3.9640420025,-1.659566770357145,0.0,1.610999999999999,1.0
mp-1190454,Ba2Hg2As4O14,22,5,2,351.4374503089487,5.66768434924757,15.974429559497668,0.97486913,-6.127376939999999,-1.926957023863636,0.0,1.4956,1.0
mp-3915,Ba1Hg1O2,4,6,166,97.46807538236185,6.302162373093815,24.36701884559045,-0.14778873,-4.99208084,-1.9609385931250007,0.0,2.2727,1.0
mp-560702,Ba6Hg6Ru6O30,48,2,176,802.209739699042,6.445645054847969,16.712702910396708,1.85183615,-6.274524870416667,-1.744168052604168,0.0,0.3504,1.0
mp-28007,Ba4Hg4S8,16,3,26,460.1347096257203,5.803646072710984,28.75841935160752,1.81003923,-4.030674986249998,-1.404333458124999,0.0,1.1569,0.0
mp-1228148,Ba2In2Cu2F14,20,4,15,302.7043876065769,4.922626853091321,15.135219380328843,1.78469549,-5.1664471135,-2.949014915666667,1.0,1.3409,0.0
mp-555699,Ba4La4Bi8S24,40,4,14,1051.0347597496454,5.60288284273168,26.27586899374113,4.99819056,-5.43376809875,-1.487247291749999,0.0,0.837299999999999,0.0
mp-1201929,Ba4La4Sb8Se24,40,4,14,1170.0219040444697,5.64012097170638,29.250547601111737,4.39541299,-4.988319605,-1.37947426590625,0.0,0.6452999999999991,0.0
mp-1228069,Ba2La4Si4S16,26,4,9,682.0272645894046,3.544105789963292,26.231817868823253,3.38514114,-6.155938891153847,-1.867592602692307,0.0,2.7289000000000003,0.0
mp-1105217,Ba2La4Pd2O10,18,1,127,287.5049847312559,6.948787197619837,15.972499151736438,5.10458175,-7.662284298333333,-3.027764744444444,0.0,2.3421,1.0
mp-8809,Ba2La4Pt2O10,18,1,127,289.6913647108643,7.912804135678524,16.093964706159127,5.7969263600000005,-7.764323086111111,-3.030775586666667,0.0,2.4067,1.0
mp-16452,Ba2La4Zn2S10,18,1,140,442.2446535368493,4.812688562979128,24.56914741871385,4.82198747,-5.898902267222223,-2.149732200833333,1.0,1.4565,0.0
mp-1101818,Ba2La2Ag2Se6,12,3,63,357.50665121503613,5.768634841527522,29.792220934586343,3.10858048,-5.207024936666666,-1.842749243949652,0.0,1.6435,0.0
mp-1214348,Ba2La2Ag2Te6,12,3,63,419.6093042355706,6.06978210388673,34.96744201963089,4.21552389,-4.733326027499999,-1.545353126944443,0.0,1.2931,0.0
mp-18079,Ba4La4Cu4S12,24,3,62,574.9227920374053,5.036857045591344,23.955116334891887,5.19874489,-5.860776805,-1.965898902083333,1.0,1.0948,0.0
mp-541430,Ba4La4Cu4Se12,24,3,62,680.231574771893,5.630811347396751,28.342982282162207,3.78397073,-5.4305919779166665,-1.856938119921875,1.0,1.205299999999999,0.0
mp-17063,Ba4La4Cu4Te12,24,3,62,818.4856373495735,5.863852575370698,34.10356822289889,4.73211515,-4.915145200833333,-1.517794134999999,1.0,0.8131,0.0
mp-557892,Ba2Li2B6S12,22,4,9,509.4899929878042,2.40589622197008,23.158636044900195,1.1413149,-5.624756384545455,-1.197826336893938,0.0,2.8597,0.0
mp-558083,Ba4Li8Ti24O56,92,3,64,1115.9882328136423,3.942498183315851,12.130306878409156,1.50906804,-8.71353206673913,-3.392609160507246,0.0,2.9428,1.0
mp-10616,Ba1Li1As1,3,2,187,81.92486176553213,4.442764820697689,27.308287255177376,2.47973006,-3.772368136666666,-0.939694690277778,1.0,0.5928,0.0
mp-554076,Ba4Li4B4S12,24,4,14,529.8155505331754,3.15015512852314,22.07564793888231,2.24401521,-5.35333528375,-1.532940570416666,1.0,2.1532,0.0
mp-23818,Ba1Li1H3,5,0,221,64.54983172455981,3.789069851402205,12.90996634491196,1.16875057,-3.412171435999999,-0.6094920114166651,0.0,2.2146,0.0
mp-13277,Ba2Li2P2,6,2,194,155.10607242231285,3.75221662641956,25.85101207038548,2.47323895,-3.990530986666667,-0.9094072093253972,1.0,0.9631,0.0
mp-10485,Ba2Li2Sb2,6,2,194,194.0495200516029,4.552960364879973,32.34158667526715,2.9489126,-3.661213635,-1.008913952777778,0.0,0.6946999999999991,0.0
mp-643264,Ba1Mg2Fe1H8,12,6,164,125.322091889139,3.3104957020825703,10.443507657428247,1.85383462,-3.8839294525,-0.482990478333333,0.0,1.447099999999999,0.0
mp-643451,Ba2Mg4H16Ru2,24,1,131,267.02935829191443,3.66982963218852,11.1262232621631,1.38522096,-3.99227172375,-0.524300972083333,0.0,1.910699999999999,0.0
mp-1041212,Ba4Mg4Cu4F28,40,4,14,540.859195489206,4.398557006447742,13.521479887230148,-0.6951162200000001,-5.201065054500001,-3.0965032295,0.0,0.2498,0.0
mp-1047850,Ba4Mg4V4F28,40,4,14,551.6237951230344,4.160949845626143,13.79059487807586,0.51226064,-6.29903321625,-3.696001451249999,0.0,2.529,0.0
mp-1196057,Ba4Mn8Si8O28,48,4,15,693.869501518146,3.976182425803344,14.455614614961377,5.12157349,-8.412050859374999,-2.9346034744468383,0.0,2.6464,1.0
mp-19507,Ba4Mn8V8O32,52,1,142,727.4428301434161,4.356147794227285,13.989285195065694,2.30977585,-8.549388850576923,-2.54981148872016,0.0,2.2123,1.0
mp-1228782,Ba2Mn16O32,50,4,13,557.3668269609952,4.962380253359956,11.147336539219904,2.32863218,-8.2133685268,-2.038069592537931,0.0,0.772899999999999,1.0
mp-540958,Ba4Mn4F20,28,3,19,397.6649384020868,4.7980249288650505,14.202319228645957,-0.37560808,-6.3626189014285774,-3.41258288613301,0.0,2.639,0.0
mp-18840,Ba3Mn3O9,15,6,166,196.58101951817105,6.088581271505338,13.1054013012114,2.44818127,-7.674919523666667,-2.489944874252874,0.0,0.8952999999999991,1.0
mp-1204333,Ba8Mn8Sn8Se32,56,3,43,1798.290504352448,4.630401449536386,32.11233043486514,2.37416076,-5.330330942321429,-1.176872656936576,0.0,0.9066,0.0
mp-1542939,Ba1Mo1P2O8,12,5,2,178.95251918590367,3.927054412332411,14.91270993215864,1.777415819999999,-8.0780083425,-2.813069997440477,0.0,1.704199999999999,1.0
mp-555195,Ba2Mo4P6O28,40,4,9,541.9092610681786,3.959730491762729,13.547731526704464,1.2929354,-8.030157351749999,-2.573749861446427,0.0,1.869699999999999,1.0
mp-554548,Ba2Mo4Se4O22,32,3,36,523.5308120605014,4.206580795982517,16.360337876890668,0.48304887,-7.25106177,-1.936707446855468,0.0,2.5898,1.0
mp-1247744,Ba12Na12,24,0,227,1243.1412192930873,2.569737895798391,51.79755080387864,1.18941401,-1.641747642083333,-0.011399782772988,0.0,0.087899999999999,0.0
mp-31235,Ba3Na3Bi3,9,2,189,338.0284172601914,5.442433346976936,37.55871302891016,2.53067489,-3.139123878888887,-0.755547202681991,1.0,0.2355,0.0
mp-9732,Ba3Na3P3,9,2,189,258.40216156773965,3.687802745154349,28.711351285304406,2.55397536,-3.655257892222225,-0.7632014775629471,1.0,0.8555,0.0
mp-1214563,Ba8Na8V8F48,72,3,33,1124.0713611368092,3.84379976043688,15.61210223801124,0.148758,-6.167634039166667,-3.5201100348754792,1.0,2.5539,0.0
mp-1227892,Ba4Na4V4S16,28,4,14,727.8927344946184,3.098167206492576,25.99616908909352,1.513206649999999,-5.715309060357143,-1.5870176234113291,0.0,1.5001,0.0
mp-28150,Ba2Nb4O12,18,4,14,262.9269106779757,5.294185871731757,14.60705059322087,1.50559952,-8.97269352611111,-3.216098964999999,0.0,2.6146000000000003,1.0
mp-1188841,Ba1Nb2V2O11,16,6,166,267.09771893645353,3.736500698365595,16.693607433528346,-0.41462679,-8.787195336249999,-2.867384822812499,0.0,2.1233,1.0
mp-1192672,Ba1Nb2Xe5F22,30,3,69,633.6327694955655,3.662561472981337,21.12109231651885,-3.80518737,-4.341135815,-2.194228877666667,0.0,2.6409,0.0
mp-757688,Ba4Nb32O56,92,3,36,1213.2951127186752,6.046941159732788,13.187990355637774,4.27229282,-9.47233716826087,-2.863603719130435,0.0,0.325099999999999,1.0
mp-1195589,Ba4Nd4Sn8S24,40,3,26,990.4039943731724,4.770871795227237,24.760099859329312,4.70250353,-5.42870631725,-1.475063968499998,1.0,0.3689,0.0
mp-19118,Ba1Nd2Co1O5,9,3,71,134.82386917603753,6.955554847572499,14.980429908448617,3.78416953,-7.841835722222227,-3.027558883333338,0.0,1.405899999999999,1.0
mp-18763,Ba1Nd2Ni1O5,9,3,71,136.61773149537714,6.861310150521069,15.179747943930794,3.48386084,-7.673989253333334,-3.010076863333333,0.0,1.9985,1.0
mp-8514,Ba2Nd4Pd2O10,18,1,127,277.6697912663871,7.322571944393226,15.426099514799285,3.09211834,-7.571012658333334,-2.973795253888888,0.0,2.219099999999999,1.0
mp-556525,Ba2Nd4Pt2O10,18,1,127,280.0510729059642,8.31175924727279,15.558392939220234,3.74713785,-7.670508070555556,-2.974262720555556,0.0,2.5077,1.0
mp-1095616,Ba2Nd2Ag2S6,12,3,63,310.8580545564483,5.188292394414823,25.904837879704026,2.83554753,-5.522952693333333,-1.865429567777776,0.0,1.6623,0.0
mp-1191985,Ba4Nd4Cu4S12,24,3,62,561.9950732183249,5.215793023128952,23.41646138409688,5.31757965,-5.759790811666666,-1.892889520833332,1.0,1.3142,0.0
mp-1214402,Ba2Nd2Cu2Te6,12,3,63,397.3441731155758,6.084051945125941,33.11201442629798,4.25476958,-4.829026253333329,-1.459651799583329,0.0,0.513899999999999,0.0
mp-19388,Ba2Ni4As4O16,26,6,148,352.03963450510724,5.024000972770849,13.539985942504124,2.14757306,-6.753878371538463,-1.9536336480769232,0.0,2.8416,1.0
mp-613910,Ba1Ni1F6,8,6,166,107.7511396953898,4.777537182488796,13.468892461923726,-1.43126685,-5.0408789775,-2.64310074375,1.0,0.4727,0.0
mp-19138,Ba2Ni2O6,10,2,194,133.449151553611,6.072761251153483,13.3449151553611,2.79794293,-6.328621400000001,-1.8200224730000008,0.0,1.469199999999999,1.0
mp-1190517,Ba2Np2H6O12,22,5,2,298.6519207635106,5.263730089979317,13.5750873074323,1.10508661,-7.425023607272727,-2.448658155681818,0.0,1.458699999999999,1.0
mp-1214391,Ba4Np4O16,24,3,57,384.48920928818814,7.572177367466928,16.020383720341172,4.26877746,-9.241676927083333,-3.465243820208333,0.0,0.510799999999999,1.0
mp-1342,Ba1O1,2,0,225,43.45357520500392,5.859229670745691,21.72678760250196,1.72769767,-6.25711068,-2.8236427075,1.0,2.0906,1.0
mp-1105,Ba1O2,3,1,139,50.80647162235199,5.534178952108108,16.935490540783995,2.22834475,-6.108491646666668,-2.170192663333334,1.0,2.2352,1.0
mp-1105095,Ba6P12,18,4,14,494.0044283699264,4.019030353699522,27.44469046499591,4.15351328,-5.053009618333332,-0.8030356214285691,1.0,0.5585999999999991,0.0
mp-581294,Ba4P8Xe16F80,108,5,2,2100.036638856598,3.493126805816978,19.444783693116648,-3.78040489,-4.053876268888889,-2.158629373677248,0.0,2.702499999999999,0.0
mp-1214414,Ba4P8Pd4O28,44,3,62,669.3827575134713,4.144660692003875,15.21324448894253,2.44318425,-7.3892292225,-2.610544601071428,0.0,0.7159999999999991,1.0
mp-7808,Ba2P6,8,4,12,201.8516428333692,3.788289939619789,25.231455354171143,4.17746109,-5.205943668749999,-0.66459478973214,0.0,0.5735,0.0
mp-28373,Ba4P12Pt8,24,4,14,545.3318747981862,7.556686326755717,22.722161449924425,4.85662227,-5.949606952499994,-0.8983299264880871,0.0,0.129199999999999,0.0
mp-1227860,Ba4P4Pd4,12,4,14,306.17743055838224,5.959741145846933,25.514785879865187,4.27710288,-5.120959548333334,-0.949516123214285,0.0,0.295599999999999,0.0
mp-11008,Ba4P4Se12,20,4,14,594.5640041838495,4.526466315493323,29.72820020919248,1.94830037,-4.858490397499999,-1.294053817834819,0.0,2.1651,0.0
mp-1214389,Ba2Pb6O8,16,2,190,337.12948598926937,8.106668232571463,21.070592874329336,5.24094079,-5.950479920625,-1.8443848993749992,1.0,2.0029,1.0
mp-19799,Ba1Pb1F6,8,6,166,127.13150999291322,5.988964398681737,15.891438749114153,-1.2041057,-5.169909093749998,-3.030567061249998,1.0,2.8927,0.0
mp-22230,Ba2Pb2O6,10,3,74,159.2597205485281,8.185414704735301,15.925972054852808,3.06685538,-6.203951158000001,-2.108850153,0.0,0.199299999999999,1.0
mp-1106270,Ba1Pd1I4O12,18,5,1,321.65937982617254,4.870003424938772,17.869965545898474,2.36540115,-5.192237241111111,-1.160546170555555,0.0,1.905799999999999,1.0
mp-1205352,Ba2Pd2Se4O12,20,4,15,358.43638273384414,4.611080557246977,17.921819136692207,1.07570714,-6.079082126499999,-1.701237552968749,0.0,1.6510999999999991,1.0
mp-12623,Ba2Pd2F8,12,1,140,209.51956411708267,5.068183307562875,17.459963676423556,-0.30216251,-5.310839361666666,-2.851794986666666,0.0,1.4527,0.0
mp-4009,Ba2Pd2S4,8,3,63,208.75574740353,4.897990044023699,26.094468425441253,2.94562453,-5.314508426250001,-1.470614454999999,0.0,0.3649,0.0
mp-1194578,Ba4Pr4Sn8S24,40,3,26,996.095273353655,4.721378902898131,24.90238183384137,4.68399861,-5.430423843,-1.474049091666665,1.0,0.3729,0.0
mp-18802,Ba1Pr2Ni1O5,9,3,71,139.1338350640303,6.657640038101925,15.459315007114478,3.38221086,-7.650876320000001,-2.98089192425926,0.0,2.167399999999999,1.0
mp-9759,Ba2Pr4Pd2O10,18,1,127,276.30751127474406,7.278520009491049,15.350417293041335,3.01789009,-7.550922985555563,-2.947633575370378,0.0,2.138899999999999,1.0
mp-1214381,Ba2Pr2Cu2Te6,12,3,63,404.4124354296097,5.95033372279594,33.701036285800804,4.69246469,-4.830286669166667,-1.45635821111111,0.0,0.5658000000000001,0.0
mp-558588,Ba12Pt24S36,72,1,92,1646.1046991091691,7.549908175402657,22.862565265405127,4.53793565,-5.642201862499992,-1.229481815416658,0.0,1.3649,0.0
mp-1214641,Ba4Re8O36,48,5,2,905.9366323333552,4.7930659354449965,18.873679840278232,-1.87860609,-8.090008622916667,-2.144437589583334,1.0,0.4154,1.0
mp-989637,Ba4Re4N12,20,4,15,383.355376091125,6.33372480850784,19.167768804556253,1.54289253,-8.574175465000007,-0.6977909885000081,0.0,1.7855,0.0