material_id,composition,nsites,crystal_system,space_group,volume,density,density_atomic,efermi,energy_per_atom,formation_energy_per_atom,is_gap_direct,band_gap,is_oxide
mp-643004,Sr1Mg2Fe1H8,12,6,164,112.75037474726082,2.94755411621884,9.395864562271734,1.85641052,-3.867532860833334,-0.485472790833333,0.0,1.724299999999999,0.0
mp-10550,Sr1Mg2N2,5,6,164,73.57960100624621,3.706633066793308,14.715920201249242,3.51948279,-5.152638686,-0.826653964,1.0,1.6917,0.0
mp-1020587,Sr8Mg24Si8N32,72,1,88,899.9435650129525,3.611305552764196,12.499216180735452,4.51576893,-6.174186413749999,-1.133934508749999,0.0,2.413299999999999,0.0
mp-15643,Sr4Mg4Ge4,12,3,62,308.96128341891256,3.967842047205432,25.74677361824272,3.22584409,-3.172888291666666,-0.524246304999999,0.0,0.0269,0.0
mp-643009,Sr2Mg2H8,12,3,36,148.70569943912994,2.589688636583528,12.392141619927497,0.90260553,-3.307730559166666,-0.490469915833333,0.0,2.7087,0.0
mp-643293,Sr4Mg4Ni4H16,28,0,198,331.37589923286896,3.5007182397913432,11.834853544031034,2.98317983,-3.755668218571429,-0.515139569999999,0.0,1.812399999999999,0.0
mp-15642,Sr4Mg4Si4,12,3,62,304.14046951960967,3.05770429501108,25.345039126634138,3.96555844,-3.274605439166667,-0.358533394166666,0.0,0.032999999999999,0.0
mp-1208827,Sr8Mg8V16O56,88,4,14,1182.6773751301516,3.659560582274237,13.439515626478997,3.51025577,-7.904832159772727,-2.802428770681818,1.0,2.7983,1.0
mp-1208680,Sr4Mn4Ge8O24,40,4,15,544.2785804518817,4.684160750915881,13.606964511297042,3.92809973,-7.4243521810000015,-2.445525668793104,1.0,1.5991,1.0
mp-1194563,Sr4Mn8V8O32,52,1,110,705.6193015664298,4.022972177943612,13.569601953200571,2.11093826,-8.512837562307693,-2.53068688122016,1.0,2.0316,1.0
mp-1200408,Sr2Mo4Se4O22,32,5,2,504.481021880736,4.038197159046899,15.765031933773,0.42843474,-7.23653993,-1.9363447849804687,0.0,2.7115,1.0
mp-1542758,Sr2Mo2O6,10,4,12,135.04259794686644,5.6946688398702925,13.504259794686645,4.32610285,-8.073330959,-2.596938715999999,0.0,1.3088,1.0
mp-768342,Sr4Nb8O16,28,3,57,381.8459466703274,5.8695534146461394,13.63735523822598,4.91445019,-8.943446465000001,-2.988177580714285,0.0,1.3932,1.0
mp-4591,Sr4Nb8O24,36,4,14,486.41646601857497,5.044661070316612,13.51156850051597,1.08666926,-8.969142043333331,-3.237719354444443,1.0,2.9977,1.0
mp-3790,Sr2Nb16O28,46,3,55,578.8999641172496,6.051617661741767,12.584781828635862,4.46147629,-9.453075039130436,-2.85419145304348,0.0,0.2536,1.0
mp-555718,Sr1Ni1F6,8,6,166,96.31948554640093,4.487613887415892,12.039935693300114,-1.22624429,-8.438344665,-2.702901423750001,1.0,1.7074,0.0
mp-2697,Sr1O2,3,1,139,41.98421694191871,4.7311038520642335,13.99473898063957,2.59636997,-6.067262499999998,-2.204479133333331,0.0,2.8495,1.0
mp-7931,Sr6P6,12,2,189,342.36289376264824,3.451242732968408,28.530241146887352,3.41588326,-13.28429556,-1.210426868988094,0.0,0.4594,0.0
mp-1198273,Sr4P44H112N36,196,3,33,2746.5764800394354,1.408958852010966,14.01314530632365,1.02558428,-5.103078705204082,-0.381205299919824,0.0,1.9578,0.0
mp-1105302,Sr6P12,18,4,14,441.13240855365945,3.378070328284513,24.507356030758856,4.34754141,-11.970547448888889,-0.920609550873016,0.0,0.796899999999999,0.0
mp-1208663,Sr4P8Pd4O28,44,3,62,614.5684803395374,3.977103967464986,13.967465462262211,2.92036393,-7.364111977499999,-2.606022524253245,0.0,0.5015000000000001,1.0
mp-569867,Sr4P12,16,4,12,358.82877940660364,3.341937723423155,22.426798712912728,5.17427575,-11.292647954375,-0.7546754528571421,1.0,0.378,0.0
mp-7198,Sr4P4Se12,20,4,14,548.3337108817398,4.305976869473027,27.416685544086988,2.25036803,-14.5446220605,-1.128138445532738,1.0,2.1432,0.0
mp-12622,Sr2Pd2F8,12,1,140,181.3603153121157,4.944867487441808,15.113359609342972,0.37337128,-5.285625199999999,-2.864338633333332,1.0,1.3251,0.0
mp-1087,Sr1S1,2,0,225,55.30731406084619,3.5934057106330632,27.65365703042309,1.8660166,-14.01483945,-2.42450937390625,0.0,2.497,0.0
mp-1204655,Sr16Sb16Se48,80,3,19,2247.191775746832,5.276147211705713,28.08989719683539,3.79254971,-4.50531472275,-1.243481970156249,0.0,0.358099999999999,0.0
mp-2758,Sr1Se1,2,0,225,61.901185586472266,4.46861550539798,30.950592793236133,1.618258749999999,-17.081164615,-2.35255396453125,0.0,2.2313,0.0
mp-4549,Sr4Si4N8,16,4,14,221.0092304102121,4.3192919610791325,13.813076900638256,4.63609269,-11.953744073125,-1.40951232125,0.0,2.9715,0.0
mp-2879,Sr4Sn4O12,20,3,62,266.2174999396318,6.345516909051056,13.31087499698159,4.02610106,-6.7465352295,-2.6373586375,0.0,1.7365,1.0
mp-1205419,Sr4Sn4S12,20,3,62,459.3685815383808,4.374305090181207,22.96842907691904,4.46611209,-14.067571032,-1.2682026126875,0.0,0.8335999999999991,0.0
mp-989627,Sr4Tc4N12,20,4,15,332.2089200514949,4.551416369146704,16.610446002574744,1.78576149,-14.2837682165,-0.584453189749999,0.0,1.581799999999999,0.0
mp-1958,Sr1Te1,2,0,225,75.58435544653058,4.728243242961414,37.79217772326529,2.74147484,-22.29913499,-2.0176923,0.0,1.7616,0.0
mp-4274,Sr4Te4O16,24,3,60,369.73531035419313,5.016039527716521,15.405637931424714,2.07390157,-6.378073300416666,-2.273476966527777,0.0,2.2486,1.0
mp-1191111,Sr2Ti2P4O16,24,4,15,321.4048055363593,3.3626676442068533,13.391866897348304,1.22315897,-8.180236325416667,-3.180023392301587,0.0,2.6126,1.0
mp-1217828,Sr4Ti12Al32O76,124,4,5,1250.5494599772458,3.989182934100852,10.085076290139078,7.15847293,-8.283616180000001,-3.465720377580646,0.0,2.6519,1.0
mp-17298,Sr1Ti4P6O24,35,6,148,472.7938511624695,2.981549917386962,13.508395747499128,0.70627477,-8.376186793714286,-3.104235324319727,0.0,2.7819000000000003,1.0
mp-559957,Sr4Ti4Ge4O20,32,4,14,424.5197934144532,4.508069262701845,13.26624354420166,2.02912538,-7.9130136965624995,-3.044169573229167,0.0,2.878599999999999,1.0
mp-9517,Sr2Ti2N4,8,1,129,116.53294840462976,4.659605807998935,14.56661855057872,3.88282441,-13.19376044875,-1.608530592291666,1.0,0.7925999999999991,0.0
mp-4651,Sr2Ti2O6,10,1,140,119.6250779514464,5.093987781835845,11.962507795144642,3.23055315,-8.438022916,-3.551662291666667,0.0,1.848799999999999,1.0
mp-505345,Sr1V2P4O14,21,5,2,272.4104350134815,3.275779448192798,12.971925476832451,2.30467674,-8.123316232857142,-2.847431070884353,0.0,2.121299999999999,1.0
mp-21614,Sr4V8P8O36,56,3,62,734.9899964316049,3.573665384761936,13.124821364850089,2.83934473,-8.27927883482143,-2.906219097270408,1.0,1.468599999999999,1.0
mp-555885,Sr2V8Ag4O24,38,1,125,586.489916435638,3.9588339683970393,15.433945169358893,0.2617136,-7.637604847368421,-2.211843805964912,0.0,2.0861,1.0
mp-558871,Sr4V4Cl4O12,24,3,62,387.2608745550077,3.807880277654851,16.13586977312532,1.09243122,-7.31550563375,-2.737379994583333,1.0,2.189,1.0
mp-30297,Sr8V8F40,56,4,14,748.5023858967381,4.145074161602383,13.366114033870325,0.498224499999999,-10.085216605,-3.675877097857142,0.0,2.3771,0.0
mp-17502,Sr4V4P4O24,36,4,14,477.00970320817055,3.697414918017325,13.250269533560292,1.2115628,-7.972181667222222,-2.874451254404762,0.0,2.4421,1.0
mp-1080135,Sr2Zn2As2F2,8,1,129,158.31411441929237,5.180441033646168,19.789264302411546,3.29413222,-4.38779182,-2.003755168125,1.0,0.6936,0.0
mp-5637,Sr4Zn4O8,16,3,62,220.7972612182532,5.566117779030704,13.799828826140825,1.689355229999999,-5.64680544375,-2.43478201625,1.0,2.0793,1.0
mp-1029275,Sr2Zr2N4,8,1,129,136.4617568377772,5.034301211930637,17.05771960472215,3.0463492,-15.6284600325,-1.590221453124999,1.0,1.227199999999999,0.0
mp-558760,Sr4Zr4S12,20,3,62,461.5351916601778,3.9582074137901833,23.07675958300889,3.75582708,-6.614669119499999,-2.083627634999996,1.0,0.551199999999999,0.0
mp-556442,Tc8O20F16,44,4,14,633.3197051388013,3.691621523146977,14.393629662245484,-2.36463992,-6.897381211818183,-2.06860917409091,0.0,1.883,1.0
mp-27485,Tc8O28,36,3,61,551.7048267620728,3.708062960045716,15.325134076724243,-2.22494907,-7.950056886388888,-1.799278561388888,1.0,2.6664,1.0
mp-1204799,Tc24Te60,84,3,61,2516.8593957719663,6.602941350816123,29.96261185442817,5.52434057,-5.778171653214286,-0.572770602261904,0.0,0.525999999999999,0.0
mp-1202969,Tc12Se16I4,32,4,14,850.4249492166495,5.754266620062891,26.57577966302029,3.88841946,-6.409953340625,-0.586256420546875,1.0,0.9837,0.0
mp-7206,Tc2Ag2O8,12,1,88,161.04572529180086,5.565161109707231,13.420477107650072,0.49529364,-7.025207255000005,-1.525970481111115,0.0,1.6034000000000002,1.0
mp-568753,Tc4Br12,16,3,59,467.5100521025119,4.798048441847449,29.21937825640699,1.03802316,-4.606608215625,-0.788738578124999,0.0,0.134,0.0
mp-570480,Tc8Br32,40,3,61,1232.1373855403494,4.502534804805766,30.803434638508737,0.05652514,-4.0958431505,-0.7141581335,1.0,0.6761,0.0
mp-1190915,Tc6Cl18,24,6,166,648.5192809230168,3.1395776171372622,27.0216367051257,0.72941364,-11.951940243333333,-0.8464455577083331,0.0,0.6643,0.0
mp-27780,Tc8Cl32,40,3,61,1046.378889151718,3.04453538784451,26.159472228792943,-0.12666412,-11.000679877,-0.885796349,1.0,0.8658,0.0
mp-1203061,Tc8F32,40,3,61,563.4330574390455,4.102325024470623,14.085826435976136,-1.01040966,-9.96296262,-2.269207849999999,0.0,1.3061,0.0
mp-28804,Tc8O16F24,48,5,2,694.959151840877,3.574435790517624,14.478315663351603,-3.00803853,-6.494717819791667,-2.161698139791667,0.0,2.5259,1.0
mp-27477,Tc6O6F24,36,2,176,545.6432731117617,3.469198676302346,15.156757586437823,-1.85211176,-6.145098378888888,-2.317763470555554,0.0,0.9928999999999992,1.0
mp-28029,Tc4P12,16,3,62,245.8592485153416,5.157947174457891,15.36620303220885,8.37318886,-13.753725229375,-0.511002482857142,0.0,0.450600000000001,0.0
mp-28026,Tc8P32,40,3,61,626.9163642420667,4.701940059702244,15.672909106051668,8.8673474,-12.87087222275,-0.476278763130952,1.0,0.8481000000000001,0.0
mp-9481,Tc4S8,12,5,2,229.4155268124772,4.694071105098641,19.11796056770644,3.776186189999999,-14.736922925833332,-0.7253695210416661,0.0,1.1885,0.0
mp-561392,Tc4S4O24F4,36,4,14,560.9147614375325,2.901912410534601,15.580965595487015,-1.46611883,-6.9256934605555545,-1.803402691944444,0.0,2.721,1.0
mp-555059,Tc4Sb4O8F32,48,4,14,785.9627455386216,3.412050010252496,16.37422386538795,-3.0181439,-5.710072499374999,-2.402040733124999,0.0,2.8238000000000003,1.0
mp-27648,Te16Br8,24,3,62,843.7857616637069,5.275777892025651,35.15774006932112,2.875582419999999,-2.987118317083334,-0.345932209861111,0.0,0.6562999999999991,0.0
mp-27655,Te16I8,24,3,62,947.9843576867668,5.354513667341664,39.49934823694861,3.25453214,-2.7884342824999973,-0.184892815277773,1.0,0.6558,0.0
mp-602,Te4Mo2,6,2,194,161.280150965677,7.23066892428707,26.880025160946165,6.39169599,-25.942847786666665,-0.307371766666667,0.0,0.8632999999999991,0.0
mp-645663,Te4Mo6Se14Br20,44,5,2,1524.9333162511823,4.126549245244622,34.65757536934506,0.75224681,-4.504680882500001,-0.8835714365790721,0.0,1.486899999999999,0.0
mp-19453,Te8Mo4O28,40,4,14,592.0689474498452,5.195713048985342,14.80172368624613,2.17034825,-6.8445570675,-1.667758174333332,0.0,2.8614,1.0
mp-12177,Te4O10,14,4,4,196.85389011371583,5.655033925776998,14.060992150979704,3.24807347,-5.850213361428561,-1.417868102619037,0.0,1.6822,1.0
mp-267,Te4Ru2,6,3,58,138.68892091453327,8.53132679029429,23.11482015242221,8.08830357,-25.825780068333334,-0.406118763333338,0.0,0.2847,0.0
mp-638749,Te6Pd8Br8,22,5,2,628.8265036302,5.957915158031608,28.58302289228181,2.112582,-4.033522302272726,-0.697410387727271,0.0,0.7702,0.0
mp-484,Te6As4,10,4,12,306.5208834463345,5.771057633752973,30.652088344633448,4.8440715,-21.134855715,-0.001508734,0.0,0.4326,0.0
mp-27628,Te12Cl8,20,4,14,653.013929905466,4.614888003138834,32.650696495273294,2.75573022,-18.0442672905,-0.3329571455,0.0,1.3552,0.0
mp-2767093,Te6Mo2Cl32,40,4,4,1230.0246745723566,2.824177389447363,30.75061686430892,1.41132043,-10.7707236485,-0.732589912,0.0,0.4888,0.0
mp-1217418,Te8Mo4Ru2,14,5,1,363.54950316332327,7.338720298312815,25.96782165452309,6.56003803,-25.943574837857145,-0.338233207142857,0.0,0.2499,0.0
mp-979264,Te12Rh2Cl6,20,6,167,606.4810019040381,5.338338981136342,30.324050095201905,3.95555066,-19.9390930135,-0.429403895249998,0.0,1.0896,0.0
mp-650674,Te16As16Se64F96,192,3,60,4297.68514112273,3.909249550843284,22.38377677668089,1.08201193,-4.439911369947917,-1.666562321076388,1.0,1.4762,0.0
mp-1095634,Te4As4Ru4,12,4,14,239.2550926838257,8.428254653835934,19.93792439031881,7.07139654,-22.33184359833333,-0.482080067499997,0.0,0.8250000000000001,0.0
mp-1208424,Te8Br32,40,4,15,1473.875434098416,4.0308407184375294,36.8468858524604,-0.77730563,-2.750892625749998,-0.812674219083331,0.0,2.5242,0.0
mp-554523,Te4Br4O12F20,40,4,14,701.4171832783072,3.319048076724462,17.53542958195768,-1.97532321,-4.4808951112500015,-1.561555379416667,0.0,2.7668,1.0
mp-740696,Te2H36Br12O16,66,4,14,923.8064149102124,2.707612988084375,13.997066892578978,-0.46046594,-4.5806505600000005,-1.136357558762626,0.0,2.1486,1.0
mp-1195796,Te8H8O24,40,3,33,460.96846686936,5.089482963780082,11.524211671734,2.86555341,-5.660514848,-1.384043778583333,0.0,2.2733,1.0
mp-569766,Te4I4,8,4,12,330.1936518769496,5.119597092881965,41.274206484618695,2.81203841,-2.605045511250001,-0.271386257083333,0.0,0.7871,0.0
mp-570884,Te16I64,80,3,62,3920.2003865394863,4.305102807150928,49.00250483174358,1.92648886,-2.2730137235,-0.425142452833333,1.0,1.8562999999999992,0.0
mp-645655,Te4Mo12Se28I24,68,4,14,2548.68267186578,4.507447403489668,37.48062752743794,1.76624142,-4.793541708970588,-0.7173233409160541,0.0,1.070099999999999,0.0
mp-1101301,Te4O12,16,4,12,222.1227124532085,5.250929414722769,13.882669528325534,1.05276267,-5.83847837125,-1.341681144166666,0.0,2.1595,1.0
mp-644827,Te4P4Cl36,44,3,46,1293.021853508934,2.45365613377633,29.386860307021223,0.45993497,-8.849020659772727,-0.6861796870887451,1.0,1.8036999999999992,0.0
mp-2458827,Te2Pd2I4,8,5,2,283.197349613315,5.720809278717776,35.399668701664375,3.28805978,-3.39045849125,-0.547655257916666,0.0,0.3673,0.0
mp-22945,Te2Rh2Cl2,6,4,12,148.06600555065097,5.9653730469990975,24.67766759177516,4.20424916,-19.220660868333333,-0.6520302558333331,1.0,0.7797000000000001,0.0
mp-1201162,Te4S28Br8,40,3,62,1201.6504912994471,2.829336864258865,30.04126228248618,2.39784304,-4.089001560749994,-0.550429967166658,0.0,2.0926,0.0
mp-672186,Te4S28Cl8,40,3,62,1136.3569704741917,2.472262792052468,28.4089242618548,1.09967409,-4.204257170749999,-0.623366324166664,1.0,2.3049,0.0
mp-1217322,Te3Se3,6,5,1,192.49977990130773,5.345475456222573,32.08329665021795,4.14394815,-19.875322996666664,-0.010930726197914,0.0,0.7062,0.0
mp-1217269,Te1Se2,3,4,5,93.40362394518606,5.076003416889559,31.13454131506202,3.59545586,-18.023633856666667,-0.010185599374999,0.0,0.6533000000000001,0.0
mp-29299,Te2Se2O8,12,4,9,186.4212429775908,4.819959972260693,15.535103581465895,2.29839747,-5.753687635833333,-1.348510737335068,0.0,2.9515,1.0
mp-28481,Ti2Cl8O32,42,4,15,598.3119557258234,2.473797965779947,14.245522755376747,1.08436338,-5.267939427380953,-0.7699851751587301,0.0,2.9158,1.0
mp-29091,Ti1Cu4S4,9,1,121,154.27680446480318,4.631598565750239,17.141867162755908,4.66855405,-5.36791565888889,-0.8294982181481491,0.0,1.4256,0.0
mp-30998,Ti4N16O48,68,4,14,874.768871120761,2.246679207749813,12.864248104717074,-2.55938759,-7.146969511911765,-1.227902743872549,0.0,2.8015,1.0
mp-13666,Ti2P4S12,18,3,43,469.8509907919472,2.136091773944847,26.10283282177484,1.0124747,-5.757764075555555,-0.918142245291004,0.0,1.4501,0.0
mp-775149,Ti3S6O24,33,6,146,439.7645953883464,2.718611920730176,13.326199860252922,-0.05055945,-7.283643876969709,-2.214925768636375,0.0,2.2283,1.0
mp-29260,Ti2Se4O12,18,4,14,252.73007423132103,3.965678614826836,14.040559679517834,0.72823227,-6.928486293888889,-1.9756995158912032,0.0,2.4447,1.0
mp-867049,Ti26Si62Ni80,168,2,191,2015.198629162912,6.3294622454457,11.99522993549352,9.67288711,-6.676755749345238,-0.700187626170634,0.0,0.051200000000001,0.0
mp-562797,Ti8Co4P8O40,60,4,14,717.8308890002013,3.484795654824523,11.963848150003354,2.14812426,-8.437951990166665,-2.888954799896824,1.0,1.9118,1.0
mp-753066,Ti8Co4O20,32,3,63,364.3320002709335,4.278175543624662,11.385375008466672,2.75039357,-8.9215445496875,-2.963518827395834,0.0,1.7405,1.0
mp-556401,Ti8Fe4P8O40,60,4,14,730.5755105749189,3.395927803771069,12.17625850958198,2.39033405,-8.5641576065,-2.926053450230159,0.0,1.9465,1.0
mp-1217120,Ti2Fe1Ni1Sb2,6,6,160,104.34455277712658,7.221651617365096,17.390758796187765,7.72511873,-7.027681481666666,-0.644490747777776,0.0,0.9409999999999992,0.0
mp-2713207,Ti12P12S6O72,102,4,9,1421.8174827537298,2.674997607421896,13.93938708582088,0.3375415,-8.110794943137256,-2.808687724810926,0.0,2.5547,1.0
mp-27921,Ti16P8Cl104,128,3,62,4075.913336965478,1.915109175378282,31.843072945042795,-0.77281317,-4.545579231328125,-1.71823460890997,1.0,2.3251,0.0
mp-771649,Ti4V2P6O24,36,6,167,456.46903874836175,3.140065623096074,12.679695520787826,4.30857646,-8.515042937777777,-2.931885007810845,0.0,0.0769,1.0
mp-766093,Ti4Ni15O24,43,6,164,430.9075001418516,5.610260758500354,10.021104654461665,4.44011539,-7.363980825581396,-1.8515370491472871,0.0,1.2556,1.0
mp-554569,Ti8Fe2P12O48,70,6,155,913.4565939947474,2.970901623468081,13.049379914210675,0.93049544,-8.422193779571428,-2.956596792462584,0.0,2.3278,1.0
mp-19383,Ti4Mn1P6O24,35,6,148,443.1897010984828,3.058258803092032,12.66256288852808,1.01305743,-8.477269143428572,-2.991900896832042,0.0,2.4649,1.0
mp-1208924,Ti16S96Cl24O4,140,3,60,3933.630755499388,2.008951870478073,28.09736253928134,1.01862287,-5.362404002642857,-1.164066417166666,1.0,1.0792,1.0
mp-556341,Ti16S32Br24O4,76,4,14,2307.471907327729,2.715649938100502,30.36147246483854,0.00646617,-5.767486033684211,-1.585460516754386,0.0,1.4006,1.0
mp-558135,Ti8S16Cl12O2,38,4,15,1055.8625045216163,2.128488791802104,27.785855382147805,0.22313332,-5.987563709473684,-1.738718319385964,0.0,1.597,1.0
mp-582657,Ti8Te18I8O2,36,4,15,1194.6271368429152,5.180511997495214,33.18408713452542,3.53833805,-5.054310530000003,-1.114547609351855,0.0,0.396299999999999,1.0
mp-559530,Ti20P16O80,116,3,19,1391.695212653798,3.260800926509812,11.99737252287757,2.12641984,-8.653302653103442,-3.132662160525444,0.0,2.9311,1.0
mp-28913,Ti12C2Cl28,42,3,64,918.1871037790434,2.877517345931153,21.86159770902484,2.21688697,-5.939075576904762,-2.011398586785714,0.0,0.9743,0.0
mp-1208280,Ti8Ag8P8O40,64,3,33,826.738490692935,4.285521230056063,12.91778891707711,1.38677076,-7.69535160265625,-2.583638071986606,0.0,2.4369,1.0
mp-998980,Ti1Al1Fe1Co1,4,0,216,49.02314051966825,6.4231421299543,12.255785129917063,7.22050147,-7.38602,-0.574893555833333,0.0,0.1246,0.0
mp-17196,Ti4As8O28,40,4,14,546.3010011686432,3.765535198070498,13.65752502921608,-0.18042416,-7.376772252749999,-2.189625841083333,0.0,2.7625,1.0
mp-569814,Ti8Br32,40,0,205,1498.950674987776,3.256784298476501,37.4737668746944,-2.77441377,-4.547424562250001,-1.658768930916667,1.0,2.4977,0.0
mp-27849,Ti2Br2N2,6,3,59,114.0444758395398,4.128694667402223,19.0074126399233,2.23725451,-7.6342475016666675,-1.677342069444446,1.0,0.5646,0.0
mp-13641,Ti2Cd2O6,10,6,148,119.04414777961352,5.810462306526291,11.904414777961351,1.77877982,-7.411338015,-2.671460970666666,0.0,2.9057,1.0
mp-2017901,Ti4Cl12,16,4,9,390.9463364106948,2.620291065384653,24.434146025668426,2.39731455,-9.655950175,-1.807181748541666,0.0,0.352199999999999,0.0
mp-5967,Ti1Co1Sb1,3,0,216,50.2224418954328,7.557042599749188,16.740813965144266,7.3977234,-17.95148674,-0.658718782222221,0.0,1.043199999999999,0.0
mp-1025502,Ti1Cu1F6,8,5,2,99.71045572440563,3.753780690375513,12.463806965550704,-0.75932842,-5.93054627875,-2.995819661666666,0.0,0.2007,0.0
mp-866375,Ti1Fe2Ge1,4,0,225,47.18664242767824,8.1712147720253,11.79666060691956,7.16593483,-7.844281295,-0.479640722083333,0.0,0.170899999999999,0.0
mp-866141,Ti1Fe2Si1,4,0,225,45.00616696229216,6.92322236784906,11.25154174057304,8.38954649,-8.24007023,-0.6748571133333341,0.0,0.401599999999998,0.0
mp-19963,Ti1Fe2Sn1,4,0,225,53.81019084127093,8.587095069196165,13.452547710317733,8.82910951,-7.480849065000001,-0.269572492083334,0.0,0.0487,0.0
mp-1277107,Ti4Fe4O12,20,5,2,219.16653632662977,4.597795231408048,10.958326816331487,3.56187732,-8.971592041000001,-2.729712792666666,0.0,2.2487,1.0
mp-961673,Ti1Fe1Te1,3,0,216,49.995294755868,7.682775238129715,16.665098251956,8.34164394,-7.153824243333332,-0.650884536666665,0.0,0.9852,0.0