material_id,composition,nsites,crystal_system,space_group,volume,density,density_atomic,efermi,energy_per_atom,formation_energy_per_atom,is_gap_direct,band_gap,is_oxide
mp-1207692,Y2Zn6P6,14,2,194,270.5037045183633,4.641516190955475,19.32169317988309,4.15078758,-11.310465045,-0.731659657704081,0.0,0.233299999999999,0.0
mp-1199133,Y22Sn20,42,1,139,1158.422983652977,6.207014166001599,27.581499610785176,5.86991494,-6.070351277857131,-0.7515072278571291,0.0,0.014699999999999,0.0
mp-579614,Y32B8C16I38,94,5,2,3214.0945324326176,4.105252751723612,34.19249502587891,3.12318291,-6.173527445425533,-1.202280749503546,0.0,0.2362,0.0
mp-680189,Y42B14C28I36,120,5,2,3102.084190948241,4.70540759128399,25.850701591235342,4.01259368,-6.6752454650000015,-1.007242000652777,0.0,0.007,0.0
mp-1206803,Y2C1I2,5,6,164,144.1835613052793,5.109231347659422,28.83671226105586,3.55033907,-6.178445459999997,-1.119470715499997,0.0,0.495099999999999,0.0
mp-35785,Y4Cd2S8,14,0,227,356.4053395002699,3.8995312080374793,25.45752425001928,1.806428519999999,-6.297743020714286,-1.936081383571428,1.0,1.1109,0.0
mp-27678,Y4Cl6,10,4,12,263.18960308422294,3.5858297091018763,26.31896030842229,3.723703839999999,-13.909505509,-2.092601786499999,0.0,0.760699999999999,0.0
mp-1362204,Y4Cr6O24,34,3,70,472.6069674062412,3.694822740886533,13.900204923712977,-0.33753289,-8.334936176764707,-2.373003384411765,1.0,2.0049,1.0
mp-1216153,Y4Cr2Fe2O12,20,4,14,222.6686186073264,5.692256145480796,11.13343093036632,3.75948125,-9.097973602,-3.015071830999999,0.0,0.426899999999999,1.0
mp-1216201,Y4Cr2Sb2O14,22,3,74,264.3936445670876,5.8228742140465055,12.01789293486762,4.66606742,-8.610481737727254,-3.02539457909089,0.0,1.894,1.0
mp-1216121,Y4Fe2Sb2O14,22,3,74,276.72231481943265,5.609643132492815,12.57828703724694,4.47002849,-8.337354384545455,-2.859815067727272,1.0,1.8064,1.0
mp-676315,Y2Ge1I2,5,6,166,167.64802323863373,4.994657713779451,33.52960464772674,3.72909677,-5.5087916020000005,-1.3709443849999992,0.0,0.1671,0.0
mp-18831,Y4Mn4O14,22,0,227,242.67026493050784,5.46989319572379,11.030466587750356,2.79988496,-8.86636365409091,-2.8683690523510963,0.0,0.8710999999999991,1.0
mp-1204562,Y4Mo2Se6O24,36,5,2,471.98902361832535,4.94390917168351,13.11080621162015,1.97444872,-7.451288019444443,-2.244226930390623,0.0,2.9162,1.0
mp-2674749,Y4Mo4O14,22,1,88,270.6051568007284,5.9116457431881,12.30023440003311,3.90213051,-9.242018167727274,-2.937908144545456,0.0,1.6484,1.0
mp-31124,Y8Mo4O24,36,4,15,458.2914794656356,5.358870433873402,12.730318874045432,2.75093829,-9.10396661222222,-3.153788929999999,0.0,1.9796,1.0
mp-28580,Y4N2Cl6,12,4,12,275.6589563111886,3.592375361954586,22.97157969259905,1.86578554,-13.771040301666666,-2.402162087708333,0.0,2.0584,0.0
mp-541289,Y12S18,30,4,11,717.4624790592753,3.8050672458027313,23.91541596864251,3.29730273,-15.328510091,-2.382070257687502,1.0,1.5992000000000002,0.0
mp-12894,Y2S1O2,5,6,164,82.11763538361161,4.891077478389802,16.423527076722323,3.24045416,-8.943769052,-3.5332761365,0.0,2.9983,1.0
mp-1105821,Y8Se12,20,3,70,581.6218463778948,4.735804012405395,29.08109231889474,1.86692824,-18.9115222435,-2.1991457209375,0.0,1.315799999999999,0.0
mp-752658,Y2Se1O2,5,6,164,86.40533251899623,5.549596101909496,17.281066503799245,3.72558747,-8.723950134,-3.44194683646875,0.0,2.161299999999999,1.0
mp-3370,Y4Sn4O14,22,0,227,281.5247988961786,6.219571875504394,12.796581768008116,4.18724165,-8.066727471363636,-3.005540767272727,1.0,2.750099999999999,1.0
mp-1189791,Y8Te12,20,3,70,708.2528418770861,5.257544052069446,35.4126420938543,3.76758781,-6.158521497500001,-1.6689013615,1.0,0.559299999999999,0.0
mp-755756,Y2Te1O2,5,1,139,95.89590196536308,5.842620020753437,19.179180393072617,5.01528475,-8.486515479999998,-3.275033299333331,0.0,0.7401,1.0
mp-1216058,Y2Te1S2,5,3,71,151.22860299666831,4.057687616153514,30.245720599333666,2.37637315,-7.019711188,-2.132069582333332,0.0,1.865199999999999,0.0
mp-25305,Y2Ti2S2O5,11,1,139,166.36412250204617,4.168938740946212,15.124011136549653,3.65687943,-8.908637589090908,-3.288120207878788,1.0,0.7881,1.0
mp-556781,Y6Cu2Ge2S14,24,2,173,493.6861784268267,4.220306042839463,20.57025743445111,4.38502582,-6.4796491170833335,-1.7114802839583332,1.0,1.7881,0.0
mp-561173,Y6Cu2Si2S14,24,2,173,486.9777990190118,3.974591429618406,20.29074162579216,4.67555977,-6.635586675833333,-1.8005603281249982,0.0,1.7371999999999992,0.0
mp-568638,Y6Cu2Si2Se14,24,2,173,561.2577602565459,5.390983811800236,23.38574001068941,3.95541611,-6.03694494625,-1.576679984283854,0.0,1.5105,0.0
mp-1208208,Y12Ga12Fe8O48,80,0,230,971.3195670246332,5.33091437564395,12.141494587807914,2.81424778,-8.060763313875,-2.8144064615,1.0,2.6298,1.0
mp-1189598,Y6Ga2S12,20,3,36,457.9058837984272,3.835477197201199,22.89529418992136,3.09648468,-6.757731726000001,-2.019178933250001,0.0,2.0555,0.0
mp-1207946,Y12In8Ga12O48,80,0,230,1031.7496787359275,5.777987945192756,12.896870984199094,3.22063309,-7.543198889875001,-2.867926784166667,1.0,2.719099999999999,1.0
mp-981511,Y6Sb2O14,22,3,63,290.4126576988975,5.723273606957043,13.200575349949885,3.4072269,-8.69063146909091,-3.391358489545456,0.0,2.8091,1.0
mp-1207796,Y12Si20N36O4,72,3,57,856.4255483017182,4.259452300299653,11.894799281968307,5.34689642,-8.775539209305556,-1.739632244861111,0.0,2.5775,1.0
mp-1193658,Y12Te12N4,28,4,14,798.9634706301512,5.51618680584962,28.534409665362546,4.24476066,-7.049885610714284,-1.721961335714283,1.0,1.124399999999999,0.0
mp-1192654,Y6V2H6O16,30,4,11,338.10484304720194,4.407197819746553,11.270161434906733,5.01590421,-8.125752722333333,-2.900394860583333,0.0,2.3493,1.0
mp-1200885,Y16C28,44,4,14,635.8327029033887,4.59325983915959,14.45074324780429,4.2315865,-8.5039397225,-0.264210227272727,1.0,0.585,0.0
mp-1207794,Y16Cd4Ni4,24,0,216,621.010211589531,5.633737243228394,25.875425482897125,3.526463279999999,-5.7260039399999965,-0.263251794999995,0.0,0.013399999999999,0.0
mp-1207825,Y16Mg4Ni4,24,0,216,641.3185082400233,4.542819987286667,26.72160451000097,3.56324487,-5.743841139583335,-0.169345690416668,1.0,0.0301,0.0
mp-1196369,Y32Ru8Br40,80,1,134,2387.0526399447817,4.76495834655511,29.83815799930977,3.63115568,-6.01739137525,-1.667841253749999,0.0,0.2208,0.0
mp-28840,Y32Ru8I40,80,1,134,2838.5255204401224,5.106894744940003,35.48156900550153,4.62067628,-5.5677818935,-1.274698732000001,0.0,0.125199999999999,0.0
mp-1029349,Y4Se3N2,9,4,12,206.5283754152776,4.989108086526872,22.947597268364177,2.72675774,-17.95631263,-2.128914199409722,0.0,1.3943,0.0
mp-1194159,Y8Zn10Ge12,30,3,36,609.7207408198556,6.092385481336328,20.324024693995185,4.76128002,-4.557073731,-0.552190318999999,0.0,0.0297,0.0
mp-29426,Y20C8I36,64,4,14,2329.349883780995,4.5928954668070805,36.39609193407804,2.8292913200000003,-5.47080607453125,-1.42587469828125,1.0,0.6686999999999991,0.0
mp-1205373,Y6Co1Br10,17,5,2,530.7854476839148,4.35296001712297,31.22267339317145,2.7577416,-5.554623085294118,-1.874774198823528,0.0,0.0956,0.0
mp-1106074,Y6Co1I10,17,5,2,636.4191495899994,4.856781885437756,37.43642056411761,3.79558586,-5.027161603529411,-1.413744434705881,0.0,0.1337,0.0
mp-1216090,Y6Mn1Si2S14,23,6,143,477.9763306796239,3.798772467930503,20.781579594766256,5.07678533,-13.462981043478262,-1.871569879298162,0.0,0.9344,0.0
mp-1188648,Y6Ni1Br10,17,5,2,532.0786140235155,4.341632197927854,31.29874200138326,3.01036477,-5.4886601335294,-1.8884159552941064,0.0,0.4824,0.0
mp-1188535,Y6Ni1I10,17,5,2,638.3479569180964,4.841483041991578,37.54987981871155,3.8536877,-4.9617618635294125,-1.427949402941176,0.0,0.493699999999999,0.0
mp-1207685,Y6Rh1I10,17,5,2,648.7981882650637,4.876657772482459,38.16459930970963,4.04640345,-5.090541871176473,-1.4635428700000022,0.0,0.0877,0.0
mp-754359,Y6Te1O12,19,6,148,257.5213344186552,5.500461373607832,13.553754443087112,2.61934944,-8.877679003157894,-3.531711268771929,0.0,2.725399999999999,1.0
mp-619775,Y14C4I24N2,44,5,2,1605.8724074083425,4.515086691953715,36.49710016837142,2.61867602,-5.657140282954546,-1.536803891590909,0.0,1.056,0.0
mp-1192970,Y16In6Co2,24,2,186,661.19879944487,5.598598470571647,27.549949976869584,4.52918363,-5.958711875833333,-0.335072713333332,1.0,0.010799999999999,0.0
mp-1216384,Y18Al10S42,70,6,146,1471.4843512761545,3.630148177171833,21.021205018230773,3.99228179,-12.990903721714286,-1.984678549830357,0.0,2.4371,0.0
mp-1195810,Y4Ag4I16O48,72,4,9,1138.5989317723297,5.229170066238302,15.813874052393466,5.7603562,-5.422856695277778,-1.265989378703703,0.0,2.3928000000000003,1.0
mp-561467,Y2Ag6P4S16,28,4,15,637.3274169680782,3.809086037520696,22.76169346314565,2.88637391,-5.038542623214285,-0.8259906142346921,0.0,2.004099999999999,0.0
mp-30250,Y2Ag2O4,8,2,194,131.84034243067953,5.7628226352971215,16.48004280383494,1.18122745,-7.412516732499998,-2.600528935416664,0.0,2.4154,1.0
mp-2757874,Y8Ag8S16,32,1,92,728.3673383860124,4.758493082561096,22.761479324562888,6.22335582,-15.9798156578125,-1.54494659046875,0.0,2.1092,0.0
mp-1188559,Y4Ag4Se8,16,3,19,398.5932825030978,5.910619697520829,24.91208015644361,2.7696267800000003,-18.99806444875,-1.42491480703125,1.0,1.279799999999999,0.0
mp-12903,Y2Ag2Te4,8,1,113,239.4775513116601,6.267982639739634,29.93469391395752,4.25036392,-5.035546182499999,-1.125885941249998,0.0,0.8975000000000001,0.0
mp-1102959,Y4As4S4,12,3,62,252.15786634601656,5.160054227784765,21.013155528834712,5.30150456,-6.808207311666667,-1.702349445,1.0,0.0251,0.0
mp-2029557,Y4As4S4,12,3,62,250.66108801537223,5.190866578494039,20.88842400128102,5.57107709,-16.137207988333333,-1.785164311770835,0.0,0.5225000000000001,0.0
mp-1095603,Y4As4Se4,12,3,62,269.7066624042976,5.979207810607944,22.475555200358134,4.47396016,-18.10489430666667,-1.660663580520835,0.0,0.0623,0.0
mp-7691,Y4B16Mo4,24,3,55,254.2569025138927,5.958573440880156,10.594037604745528,6.8693006500000005,-13.299833391666668,-0.6713338599999991,0.0,0.2774,0.0
mp-1045767,Y1Cr4Cu3O12,20,0,204,201.7144628759281,5.593903550664575,10.085723143796407,4.27961649,-7.870556016,-2.0308343435,1.0,0.1077,1.0
mp-20450,Y4Cr4B16,24,3,55,233.2179755814812,5.244562185547949,9.717415649228382,6.56229408,-11.45040933125,-0.655015974583335,0.0,0.1589,0.0
mp-18725,Y4Cr4O12,20,3,62,219.3803195109757,5.719311184536888,10.969015975548787,3.68013656,-9.3922170475,-3.191012650500001,0.0,2.4831,1.0
mp-1285565,Y4Cr4O16,24,3,21,315.69813106606074,4.311000592303957,13.154088794419197,2.48812767,-8.749774547083334,-2.75744404875,0.0,0.7015,1.0
mp-1105234,Y2Cr2Te2O12,18,6,163,229.56451246934324,5.273147346474719,12.753584026074623,3.28235392,-7.974557029444444,-2.530866930185184,0.0,2.6946000000000003,1.0
mp-10533,Y4Cu4S8,16,3,62,330.9968870541386,4.346175291765535,20.687305440883662,4.04598175,-13.398567635,-1.590968853906249,0.0,1.5946999999999991,0.0
mp-28797,Y1H1Se1,3,2,187,50.026080380129024,5.605506637517642,16.675360126709673,3.95659998,-14.35338476,-1.659960229270832,0.0,1.5072,0.0
mp-510598,Y4Mn8O20,32,3,55,349.15192965223,5.30340269093089,10.910997801632188,3.12425157,-8.830357905937468,-2.633742017295228,0.0,1.1643,1.0
mp-1207651,Y4Mn4Fe4O20,32,3,55,368.6083594691474,5.039813591784355,11.519011233410856,3.10219633,-8.61780832875,-2.507691700366379,1.0,1.1209,1.0
mp-1207709,Y4Mn4Ga4O20,32,3,55,348.93625640706125,5.588118829613209,10.904258012720664,2.44086355,-8.1315964928125,-2.70172051286638,0.0,1.585,1.0
mp-989604,Y4Mo4N12,20,4,15,298.7641608959705,5.043707675332528,14.938208044798523,2.66589983,-9.5667560595,-1.0928410905,0.0,1.9089,0.0
mp-2114,Y1N1,2,0,225,29.3532772394838,5.821847704574437,14.6766386197419,4.18413615,-16.720793145000002,-1.999617329374999,0.0,0.151,0.0
mp-1194612,Y4Nb4Te8O32,48,3,64,699.1982223931271,5.367387275231076,14.566629633190148,5.79864917,-7.726178150625,-2.519453453402777,0.0,2.4013,1.0
mp-2713827,Y3Nb9P18O72,102,6,143,1578.3160819181023,2.958870437504938,15.473687077628457,0.40408919,-8.492748558039215,-2.961662914152662,1.0,1.8132,1.0
mp-11520,Y1Ni1Sb1,3,0,216,63.47281123191167,7.046821290786001,21.15760374397056,6.58644604,-6.422141889999999,-0.949398749999998,0.0,0.2945,0.0
mp-9854,Y2P10,12,4,11,244.7058683423263,3.308440039622174,20.39215569519386,5.55217995,-11.526529035,-0.6391986149801591,0.0,0.1371,0.0
mp-1191026,Y8P8S8,24,3,62,480.0000108962602,4.205165974296771,20.00000045401084,5.42755001,-14.235755899166668,-1.785530447762897,0.0,0.3264,0.0
mp-31266,Y8P8S32,48,1,142,1098.735114561715,3.000144542472958,22.890314886702388,2.97649136,-11.455282426458332,-1.212670159662697,0.0,2.1535,0.0
mp-1207629,Y4Rh4O12,20,3,62,228.16866006717177,6.981031070639306,11.408433003358589,5.49456667,-8.290526322,-2.547069844999999,1.0,9.999999999976698e-05,1.0
mp-10086,Y2S2F2,6,1,129,97.1804471117442,4.783357557393636,16.196741185290698,4.28635563,-13.82330693,-3.331764265937501,1.0,1.3132,0.0
mp-1207765,Y4Sb4O16,24,5,2,299.7033451228763,6.087211188185334,12.487639380119846,3.61749176,-7.91533750375,-2.843681377083333,0.0,2.3634,1.0
mp-1207056,Y1Sb1Pd1,3,0,216,71.12020036640537,7.40343023048882,23.706733455468456,6.17526378,-24.23324485333333,-1.239788086666664,0.0,0.4744,0.0
mp-769404,Y8Se8O24,40,4,14,621.1035251012897,4.616952551232608,15.527588127532244,3.21889637,-7.469001202000004,-2.499224003468754,0.0,1.836899999999999,1.0
mp-19133,Y2V2O8,12,1,141,160.26323538371267,4.224206533628038,13.355269615309387,0.7204471,-9.081594411666666,-3.184120813333332,0.0,2.976,1.0
mp-546011,Y2Zn2As2O2,8,1,129,141.60195113136348,5.751668055450422,17.700243891420435,4.28902801,-6.313727393750001,-1.966997731874999,0.0,1.2015,1.0
mp-1215705,Y1Zn1Cu1P2,5,6,156,88.50057847257435,5.250053098046244,17.70011569451487,5.73828511,-5.3043756,-0.7645778338571421,0.0,0.052799999999999,0.0
mp-12509,Y2Zn2P2O2,8,6,166,134.40133490239887,4.973858448756877,16.80016686279986,4.68827584,-6.557715556250001,-2.024648146160714,0.0,1.3049,1.0
mp-4194,Zn2Cr4S8,14,0,227,250.2161420962153,3.950808665421528,17.87258157830109,4.26717719,-6.349802952857141,-1.047049121428568,0.0,0.0344,0.0
mp-4697,Zn2Cr4Se8,14,0,227,292.8693580769563,5.502535155023875,20.91923986263973,3.26045784,-5.800587329999998,-0.8649466927678541,0.0,0.038899999999999,0.0
mp-1047156,Zn2Cu4O8,14,1,141,152.3178524194078,5.59259389576237,10.879846601386271,1.93726755,-5.308232844285713,-1.129661277142856,0.0,0.429799999999999,1.0
mp-19313,Zn2Fe4O8,14,0,227,150.06237695876197,5.335785441202922,10.71874121134014,2.30255754,-7.172401632857143,-1.7450259114285722,1.0,1.6686,1.0
mp-5794,Zn2Ga4O8,14,0,227,145.1475013418485,6.151538832288072,10.367678667274893,1.84772472,-6.049497091428571,-2.176957137857143,0.0,2.310499999999999,1.0
mp-5350,Zn1Ga2S4,7,1,82,146.78240629193527,3.768506629263857,20.96891518456218,1.9400673,-10.00819673,-0.8744608966071431,1.0,2.276499999999999,0.0
mp-15776,Zn1Ga2Se4,7,1,82,169.39174072865404,5.104347978029998,24.19882010409344,1.5741208,-3.958072944285713,-0.915275577767856,1.0,1.400099999999999,0.0
mp-15777,Zn1Ga2Te4,7,1,82,215.6045241482677,5.508738162025835,30.800646306895384,3.27504577,-3.466619885714284,-0.6253114245238071,1.0,1.0183,0.0
mp-24694,Zn16H64N32,112,1,142,1039.7715053831605,2.490184646066881,9.283674155206787,-0.354555599999999,-4.9174453598214285,-0.415021809107143,1.0,2.3718,0.0
mp-625830,Zn4H8O8,20,3,19,206.5671369935557,3.196963605886402,10.328356849677784,-1.48636231,-5.0755895165,-1.4863898169999992,0.0,2.9697,1.0
mp-22607,Zn1In2Se4,7,1,82,191.800785952383,5.288812570099574,27.40011227891185,2.38048384,-3.827131027142857,-0.86116859752976,1.0,0.9929,0.0
mp-20832,Zn1In2Te4,7,1,82,240.88146830313525,5.552410892873276,34.41163832901932,3.73687029,-3.3789771928571453,-0.61450366857143,1.0,0.8291000000000001,0.0
mp-5146,Zn2Rh4O8,14,0,227,155.2282326923861,7.171915971174942,11.087730906599006,3.86507589,-6.412913488571426,-1.30145586428571,0.0,0.9323999999999992,1.0
mp-3188,Zn2Sb4O12,18,1,136,203.59309349228687,6.605277558534719,11.31072741623816,4.61215386,-6.240887075,-1.884719061666666,1.0,0.542199999999999,1.0
mp-27656,Zn4P6S18,28,4,12,663.2956911847922,2.565174183934022,23.68913182802829,1.47096634,-8.813309020357142,-0.445992885660076,0.0,1.8214,0.0
mp-779594,Zn16As16O56,88,3,57,1266.5583928301792,4.11838754195602,14.392709009433856,1.92532372,-5.972916994659091,-1.7460570564772722,0.0,2.0523,1.0
mp-721702,Zn8As4H4O20,36,3,58,449.8480044391553,4.233879053418351,12.495777901087648,0.44801994,-5.631805613333333,-1.7068521448611111,0.0,1.9675,1.0
mp-1105648,Zn8Br4N4,16,3,33,298.07902587340214,5.007675862369755,18.62993911708764,0.6496106500000001,-3.725672515625,-0.6019946406250001,1.0,1.8521,0.0
mp-6278,Zn2Cu1As2O8,13,5,2,165.69255335079256,4.732322103107533,12.745581026984045,1.74408156,-5.903058587692308,-1.630548818846154,0.0,0.4821,1.0
mp-5909,Zn12Ge6O24,42,6,148,560.383815647266,4.755174506972145,13.34247180112538,-0.16572209,-5.8170574464285725,-1.969291861428572,1.0,2.2752,1.0
mp-1188466,Zn8I4N4,16,3,62,317.8466393321188,5.678422817594306,19.865414958257425,2.27719463,-3.507147441875,-0.411703046875,0.0,1.6378,0.0
mp-1189171,Zn8N4Cl4,16,3,33,266.3029809174084,4.496504885608294,16.643936307338024,0.86194845,-8.88729217125,-0.6116934765625001,0.0,1.9701,0.0
mp-1102523,Zn4P2N6,12,3,36,125.3539760627162,5.399710000712916,10.446164671893015,4.4631912,-9.614663618333331,-0.579741362371032,0.0,2.5136000000000003,0.0
mp-3789,Zn12Si6O24,42,6,148,523.0730091077116,4.24570923859573,12.454119264469323,0.69371551,-6.409501905714287,-2.44712343857143,1.0,2.7537000000000003,1.0
mp-16834,Zn6As4O16,26,4,14,345.3441886394256,4.55895389422798,13.282468793824062,0.20638168,-5.826267356923082,-1.772177823461543,0.0,2.1475,1.0
mp-680580,Zn96As64,160,1,133,3390.625722112223,5.42354724097907,21.1914107632014,2.74157107,-2.7675175500625,-0.1436223710625,1.0,0.248,0.0
mp-1207534,Zn12Cd12Te8O48,80,0,230,986.2831224513408,6.60423867387436,12.32853903064176,2.15047159,-5.242892333125001,-1.626822070791667,1.0,1.8056,1.0
mp-1216036,Zn6Co8Sb4O24,42,5,2,469.3934615498833,6.137589149785002,11.176034798806745,3.90605093,-6.429372464047619,-1.670018547380951,0.0,0.347099999999999,1.0
mp-555802,Zn6Fe4Se12O36,58,4,14,841.8077194831957,4.220019541783321,14.513926197986132,0.87508036,-5.967558726379311,-1.458660788243535,0.0,2.470799999999999,1.0
mp-1246430,Zn6Mo2N8,16,3,31,194.0264216744404,5.959903838437623,12.126651354652523,4.71438425,-6.359343885,-0.362094895000001,0.0,2.1347,0.0
mp-1216023,Zn6Ni8Sb4O24,42,4,15,480.7409991401244,5.986089620007607,11.446214265241055,4.3000772,-6.160079801190477,-1.6584935111904762,0.0,1.1224,1.0
mp-2071,Zn24P16,40,1,137,731.0822298364071,4.691224769052758,18.27705574591018,3.27537034,-9.2038189335,-0.256626845690476,1.0,0.3144,0.0
mp-1215629,Zn3P1Br3,7,4,6,183.25182245312791,4.23093681479441,26.178831779018275,0.60893986,-2.912350128571429,-0.8972724199489801,1.0,1.6198,0.0
mp-13199,Zn18Te6O36,60,4,15,680.464328388086,6.146977535979629,11.341072139801431,2.50569964,-5.360621812333334,-1.699591537,0.0,1.062799999999999,1.0
mp-14921,Zn4B6Se1O12,23,0,217,233.2981476570528,4.2524856964834,10.143397724219689,2.5244969900000003,-7.134210053478261,-2.439133157710597,0.0,1.8571,1.0
mp-1046528,Zn8Co10Te6O36,60,4,15,703.7341174228247,5.7909167224397216,11.728901957047078,4.33564423,-6.189179544166667,-1.5492037505,0.0,0.9073,1.0
mp-557537,Zn4P6N12O1,23,0,217,265.609503338748,3.948380371792607,11.548239275597735,3.90131705,-6.948445963043478,-0.75109337447205,0.0,2.971599999999999,1.0
mp-1216191,Zn12B6H2O22,42,6,161,524.7797251313776,3.809061419249039,12.494755360270895,-0.37912679,-6.223295843333333,-2.155706583035714,0.0,2.8322000000000003,1.0
mp-1205290,Zn216Ru36,252,0,213,3815.1001264855727,7.733105497848776,15.13928621621259,3.50220187,-2.548586704007936,-0.14389181829365,1.0,0.011299999999999,0.0
mp-1215558,Zn1Ag2Ge1S4,8,1,82,176.95041939490488,4.5236130059032345,22.11880242436311,2.47888809,-4.14439529625,-0.629134659791665,1.0,0.9342,0.0
mp-1079889,Zn1Ag2Sn1S4,8,1,121,189.2584242394641,4.633644483182918,23.65730302993302,2.90636277,-4.059099167499999,-0.620520531041664,1.0,0.218199999999999,0.0