material_id,composition,nsites,crystal_system,space_group,volume,density,density_atomic,efermi,energy_per_atom,formation_energy_per_atom,is_gap_direct,band_gap,is_oxide
mp-531611,Mg2Al4B56,62,5,1,485.0670386392511,2.608405062546857,7.8236619135363075,6.15030313,-6.4221320732258125,-0.094887193924735,0.0,0.8259999999999991,0.0
mp-8708,Mg2Au4F16,22,4,14,303.49033538744743,6.239944951229924,13.795015244883974,-2.08983063,-4.16203225181818,-2.026663795909089,0.0,1.9810999999999992,0.0
mp-568803,Mg2B24C4,30,3,74,217.5951008007281,2.717643258035155,7.253170026690936,6.12411503,-6.848313568,-0.165613417999999,0.0,2.1397,0.0
mp-3582,Mg8B16C16,40,3,64,380.087796892242,2.444741489642583,9.50219492230605,4.83980964,-6.8296820095,-0.140365101166666,0.0,1.3298,0.0
mp-865185,Mg1Be2As2,5,6,164,79.58497655472777,4.009677000171609,15.916995310945556,4.63641886,-4.001587973999999,-0.311679811999999,0.0,0.404199999999999,0.0
mp-1017628,Mg1Be2P2,5,6,164,71.49090960442201,2.42206802550967,14.298181920884405,5.67672745,-4.453688070000002,-0.465639510857143,0.0,0.6341,0.0
mp-28447,Mg2Bi4O12,18,1,136,231.31625031681256,7.727994984787273,12.850902795378476,3.3490821,-6.046134988333331,-1.7018789144444422,0.0,0.001999999999999,1.0
mp-1400392,Mg2Cr4S8,14,0,227,263.5798815031735,3.232593102234777,18.82713439308382,4.21175219,-6.5557852235714265,-1.200070477142852,0.0,0.9995,0.0
mp-1041631,Mg4Cu8O16,28,3,57,271.4331378813932,5.270854558531761,9.694040638621184,3.6699399,-5.725900386428571,-1.494367904285713,0.0,0.3094,1.0
mp-38951,Mg2Ga4O8,14,3,74,141.901169852472,5.330265396073034,10.135797846605143,2.58247152,-6.458567636428568,-2.533066767857139,0.0,2.6624,1.0
mp-667323,Mg6Ga12S24,42,4,15,881.8968652563112,3.298995783839219,20.99754441086456,2.53401062,-4.644154353333333,-1.181282877619046,0.0,2.3518,0.0
mp-20493,Mg2In4S8,14,0,227,315.3876806817142,4.024632099908039,22.5276914772653,3.7635593,-4.4857812839285724,-1.099744745119047,1.0,1.764399999999999,0.0
mp-1006591,Mg4In8Se16,28,5,2,784.2037323163396,4.826009216312936,28.007276154154987,3.257754299999999,-4.02157639964286,-1.002653055029763,0.0,0.798099999999999,0.0
mp-1222182,Mg1In2Te4,7,1,82,253.3950353475435,5.008851451897298,36.19929076393479,3.2255144,-3.536231495714283,-0.7187970564285681,1.0,1.4769,0.0
mp-8208,Mg1Pt3O6,10,3,65,112.63224450559863,10.401985589608127,11.263224450559864,5.25939535,-6.329759824000002,-1.376596223500001,0.0,0.2984,1.0
mp-27219,Mg4Sb8O16,28,1,135,427.5114740346541,5.155458264365747,15.268266929809077,4.14985307,-6.40624730678571,-2.166202090357139,1.0,2.5763,1.0
mp-3653,Mg2Sb4O12,18,1,136,201.3743700112986,6.000164250606553,11.1874650006277,5.14520372,-6.621298827777778,-2.223938991666667,1.0,1.037499999999999,1.0
mp-14307,Mg2Sc4S8,14,0,227,303.7541893050832,2.65110575046383,21.69672780750594,2.98419924,-6.471187339285714,-2.064209268571427,1.0,1.5651000000000002,0.0
mp-567224,Mg4Si8B48,60,3,62,563.3591844402094,2.478408842903308,9.389319740670157,6.17587408,-6.278089828833333,-0.102502673833332,0.0,2.0585,0.0
mp-29624,Mg2Al2Se5,9,6,164,213.7808019525173,3.863337670279202,23.753422439168585,2.61202343,-4.440237045555555,-1.303387147968749,1.0,1.936099999999999,0.0
mp-568556,Mg4B48C2,54,1,118,406.5429782996535,2.614794387515776,7.528573672215805,5.67962493,-6.529043086481482,-0.129227974537037,0.0,2.816,0.0
mp-642660,Mg4Co2H10,16,1,129,127.11642919972115,2.94137109664556,7.944776824982572,3.98725458,-3.775392379375,-0.354118761406249,0.0,0.194699999999999,0.0
mp-23804,Mg2Fe1H6,9,0,225,64.16513438568785,2.859714273790479,7.129459376187539,2.93462837,-3.963834401111111,-0.396949970833333,0.0,1.913999999999999,0.0
mp-408,Mg2Ge1,3,0,225,64.57586863742208,3.117888556106423,21.52528954580736,3.3800771,-7.747424976666667,-0.343896726666667,0.0,0.1689,0.0
mp-17441,Mg8Ge4S16,28,3,62,576.2127932907068,2.87616732798458,20.57902833181096,2.84274628,-4.751432621071429,-1.260374598928571,0.0,2.58,0.0
mp-1192564,Mg8Ge4Se16,28,3,62,672.0344668586747,4.320046404839095,24.00123095923838,3.54133469,-4.219532437857143,-1.095587609910714,0.0,1.493799999999999,0.0
mp-770423,Mg4Mn6O16,26,3,31,263.01723725582224,4.311049342432729,10.116047586762392,2.50930698,-7.656075331538462,-2.246023489522547,0.0,1.399499999999999,1.0
mp-697331,Mg8Ni4H16,28,4,15,265.92164711730936,2.780915125493409,9.497201682761048,3.37825895,-3.5636289725,-0.3319514775,0.0,1.571899999999999,0.0
mp-33940,Mg4Pt2O8,14,3,74,155.27260238423105,6.581121388051768,11.090900170302218,3.97764719,-6.341118776428571,-2.180559152142856,0.0,1.077399999999999,1.0
mp-1029627,Mg8Re4N12,24,4,15,311.4498543359846,5.903985033023504,12.977077263999355,5.03535837,-7.349718709583333,-0.5624041308333331,0.0,0.253999999999999,0.0
mp-1029378,Mg4Sb2N6,12,3,36,162.56372011843297,4.339000831823242,13.54697667653608,4.47291607,-5.947336907500002,-0.546541156666669,1.0,0.000199999999999,0.0
mp-1367,Mg2Si1,3,0,225,63.69904837788204,1.999337152211547,21.23301612596068,3.40203031,-3.004018116666666,-0.108598763333333,0.0,0.217999999999999,0.0
mp-1193963,Mg8Si4S16,28,3,62,559.8940879583741,2.4314356731685223,19.99621742708479,6.22807774,-5.012553085,-1.406882180714285,1.0,2.969099999999999,0.0
mp-1192582,Mg8Si4Se16,28,3,62,656.2997215584232,3.9727003462965182,23.439275769943688,4.70185541,-4.4129096975,-1.174351987410714,1.0,2.131,0.0
mp-34022,Mg4Sn2O8,14,3,74,161.81208557747004,4.747629452044268,11.558006112676432,3.811373719999999,-6.529048445714284,-2.6629976021428563,0.0,2.7149,1.0
mp-1222196,Mg4V4Co2O16,26,3,64,298.5820847688032,3.753081225472855,11.48392633726166,2.0105296,-7.712529408076923,-2.470540413461539,0.0,2.5147,1.0
mp-27150,Mg4V4O14,22,5,2,265.55924353404055,3.282679233035862,12.070874706092752,0.70563279,-7.771913141363637,-2.675142304545454,0.0,2.7138,1.0
mp-1029368,Mg4V2N6,12,3,36,144.36430077503098,3.256832489181819,12.03035839791925,3.161653,-7.343805960833332,-1.117192738333332,0.0,1.8994,0.0
mp-1222174,Mg4Zn2As4,10,6,156,199.96170761099577,4.382373970834491,19.996170761099577,4.31511263,-3.228867127999998,-0.456681386999999,1.0,0.5345,0.0
mp-1222129,Mg2Zn1P2,5,6,156,91.31324082665388,3.199966235679973,18.262648165330777,5.38472778,-3.56750833,-0.497182191857142,0.0,0.9775,0.0
mp-1205144,Mg6Al36W4,46,0,227,772.1727636673756,3.983811558813666,16.786364427551643,7.15039348,-4.367937914130436,-0.097153764347825,0.0,0.0265,0.0
mp-1990,Mg24As16,40,0,206,944.6147476461048,3.132694630713741,23.61536869115262,2.42281242,-9.17214968525,-0.78755513925,1.0,1.6654,0.0
mp-1206514,Mg3As1N1,5,0,221,74.42114156493827,3.611166352278549,14.884228312987654,4.712618,-8.16520575,-0.896367267250001,0.0,2.281799999999999,0.0
mp-770722,Mg3Mn5B4O16,28,5,1,288.53215188167604,3.722643941524659,10.304719710059858,3.27638213,-8.1780028925,-2.585630404332922,0.0,0.8500000000000001,1.0
mp-643573,Mg6Mn2H14,22,2,194,190.17008726927776,2.356007145504216,8.644094875876261,2.97602335,-3.783996438636363,-0.345851856061911,1.0,1.6630999999999991,0.0
mp-1245510,Mg6Mo2N8,16,3,31,204.77218750007123,3.647223959720584,12.798261718754452,6.07360936,-7.108456584375,-0.9721851925,0.0,2.9642,0.0
mp-1559,Mg24N16,40,0,206,489.827010464277,2.73722024386655,12.245675261606925,3.70405339,-7.095321842,-0.9422394225,1.0,1.952799999999999,0.0
mp-505365,Mg3Nb6O11,20,6,164,240.75479429732084,5.561551400341559,12.037739714866042,5.08592387,-8.758069667000001,-2.7617291,0.0,0.2437,1.0
mp-2514,Mg24P16,40,0,206,866.2922139668336,2.068073438608592,21.65730534917084,3.20685389,-3.792177938999999,-0.647706519857142,1.0,1.798099999999999,0.0
mp-643061,Mg6Re2H14,22,2,194,212.58366059880467,4.158346591624475,9.66289366358203,2.2174624,-4.084510159090908,-0.347629311477272,0.0,2.6637,0.0
mp-1196139,Mg24Sb16,40,0,206,1177.5395959499583,3.569834467371242,29.43848989874896,3.15037075,-3.05801384425,-0.428131339249999,1.0,1.3212000000000002,0.0
mp-1080847,Mg3Sb1N1,5,0,221,82.0474083873499,4.223462046461523,16.40948167746998,5.70989247,-4.177674120000001,-0.705936314,0.0,1.623399999999999,0.0
mp-1222229,Mg3Si9B36C1,49,6,160,484.3418649363028,2.492105932090949,9.884527855842911,5.72168316,-6.307357107755102,-0.115397075969386,1.0,1.042,0.0
mp-864942,Mg6Tc2H14,22,2,194,209.3254311661595,2.823613921624988,9.514792325734522,2.35656013,-3.927473061363636,-0.38036269215909,1.0,2.6125,0.0
mp-3118,Mg6Te2O12,20,6,148,219.83434367579835,4.479452620181878,10.991717183789918,3.554516989999999,-6.3120877365,-2.539839539666666,0.0,2.9101,1.0
mp-1030015,Mg108W36N144,288,6,159,3998.4715381187016,4.676264456985554,13.883581729578824,3.4611653,-7.2327427275,-0.8324113206249991,1.0,1.9513,0.0
mp-2713744,Mg8Nb4S18O72,102,6,158,1475.5369391049223,2.582962453676178,14.466048422597275,0.14089715,-7.006375296666667,-2.259388582401961,1.0,2.333799999999999,1.0
mp-676305,Mg8Sb4O18,30,5,2,325.3065630706089,4.948690445313972,10.84355210235363,4.22111645,-6.514853357333334,-2.560751251666667,0.0,2.4289,1.0
mp-1222125,Mg4Si1Ge1,6,6,166,127.84488759050367,2.571054987044204,21.307481265083947,4.10020242,-2.947115743333333,-0.185411419166666,1.0,0.005399999999999,0.0
mp-989522,Mg6Bi2P1N1,10,0,225,204.3938955517204,4.945785980768619,20.439389555172035,4.98100814,-3.604673167,-0.473009168964286,1.0,0.904799999999999,0.0
mp-19239,Mg24Mn4O32,60,0,225,583.7604997297776,3.740741021274272,9.72934166216296,3.18715837,-6.740838904499999,-2.838937343028735,0.0,2.2891,1.0
mp-1222065,Mg2Ag4P4S12,22,4,15,478.5552979323388,3.430890935917467,21.75251354237904,4.96990007,-4.619281574545455,-0.7122406811471841,0.0,2.2038,0.0
mp-555546,Mg4As8Xe16F80,108,3,19,2131.948683370919,3.362558096213024,19.74026558676777,-3.39101062,-3.701776901851851,-1.872426558888888,1.0,2.897199999999999,0.0
mp-554686,Mg4As8Xe8F72,92,4,14,1563.4997981566098,3.308144549155631,16.994563023441412,-3.71279401,-4.040458979021739,-2.062528275978261,0.0,2.6775,0.0
mp-7623,Mg4As16,20,1,92,469.7396236555229,4.581264597231103,23.486981182776145,3.60200423,-12.904779862000002,-0.304894355,0.0,0.8144,0.0
mp-1194889,Mg2Au4S8O32,46,3,43,665.0788483828351,4.007234844674127,14.45823583440946,-0.06183895,-6.171503071739131,-1.654153142826087,0.0,1.7625000000000002,1.0
mp-365,Mg4B16,20,3,62,177.51255307952263,2.527545268520004,8.875627653976132,6.93534503,-6.8837363985,-0.1727923235,0.0,0.364099999999999,0.0
mp-978275,Mg4B28,32,3,74,251.90496067954192,2.636296109595186,7.872030021235685,7.48912716,-7.1071141003125,-0.157891229375,0.0,1.541399999999999,0.0
mp-30091,Mg2B18N2,22,6,166,173.35858147630654,2.597931562214007,7.879935521650297,5.65348591,-7.659845683181818,-0.440278225568182,0.0,1.6752999999999991,0.0
mp-1443950,Mg1Co1F6,8,6,148,96.64954197285984,3.388591526097934,12.08119274660748,-1.83985961,-5.09064082125,-2.559765698125,0.0,0.0078,0.0
mp-554955,Mg1Cr1F6,8,6,148,94.76075401263512,3.334571415843009,11.845094251579392,-2.39923963,-5.96035213625,-3.114523169375,0.0,1.6140999999999992,0.0
mp-19120,Mg2Cr2O8,12,3,63,144.76612491605178,3.218590985678326,12.063843743004314,0.18226955,-7.364724258333333,-2.185497340833333,0.0,2.3991,1.0
mp-1205334,Mg2Cu4Si2S8,16,3,31,303.1549676281808,3.371334784326635,18.94718547676129,6.39492819,-4.928339125625,-0.95238416875,1.0,1.673099999999999,0.0
mp-1188827,Mg2Cu4Si2Se8,16,3,31,360.2456907271284,4.566341155425455,22.515355670445523,3.62271708,-4.417267115,-0.7625362030468741,1.0,0.7726000000000001,0.0
mp-7352,Mg4Cu4P4,12,3,62,175.6042302669712,4.494496723238884,14.633685855580934,7.30101959,-4.134183709166669,-0.419133639047621,0.0,0.018499999999999,0.0
mp-1041741,Mg2Cu2P4O14,22,5,2,244.9675313093676,3.549202623650019,11.134887786789436,3.12560547,-7.164285901363636,-2.510072194935064,0.0,0.3723,1.0
mp-7798,Mg4Ge4N8,16,3,33,188.12025622947417,4.412035345023502,11.757516014342135,3.46192443,-9.835632413125,-0.760936786249999,1.0,2.6358,0.0
mp-1202806,Mg4H4Au8F44,60,4,14,844.019993750273,4.943949179617624,14.066999895837885,-3.19276263,-4.031796306499999,-1.856744534583332,0.0,1.6864,0.0
mp-1185888,Mg12H12N12,36,2,175,433.43944799354495,1.8076379140909304,12.03998466648736,0.98054197,-5.190502707499999,-0.7358646412499991,0.0,2.2587,0.0
mp-1391800,Mg1Mn1F6,8,6,148,92.49068941421103,3.469232614772261,11.56133617677638,-0.14137639,-5.798121377499999,-3.013671432866378,1.0,2.8029,0.0
mp-1247154,Mg1Mn1N2,4,6,166,36.47917076776599,4.882334584877993,9.119792691941498,6.32210275,-7.612469727500001,-0.7452095282327591,0.0,0.000399999999999,0.0
mp-2232942,Mg1Mn1V4O12,18,4,5,262.5167755709333,3.004604633795874,14.584265309496296,0.04308616,-8.353444309999999,-2.436575329607278,0.0,2.1181,1.0
mp-1398330,Mg1Mo1F6,8,6,148,104.69033976042796,3.715309982306983,13.086292470053491,-1.06985922,-6.169142987500001,-3.174238690625,0.0,2.4449,0.0
mp-864954,Mg2Mo2N4,8,2,194,77.2385908868597,6.374763245285786,9.654823860857462,8.86064092,-8.3269147525,-1.03874584875,0.0,0.7411000000000011,0.0
mp-2713885,Mg2Nb10P18O72,102,6,158,1518.9294981796627,2.937681681213407,14.891465668428063,0.26189643,-8.348856703431373,-2.878212524544818,1.0,2.3163,1.0
mp-1045786,Mg2Ni2P8O24,36,4,15,437.4367263135899,3.028397745728641,12.151020175377496,2.37207482,-7.528684677222222,-2.614905074087302,0.0,0.086899999999999,1.0
mp-384,Mg2P8,10,4,14,196.7707540703042,2.501306360680703,19.677075407030426,5.21312334,-4.956805909000001,-0.298333085714285,0.0,0.7289000000000001,0.0
mp-675651,Mg2P2S6,10,4,12,218.3408527787415,2.303994842602907,21.83408527787415,2.57191553,-4.944037280000002,-1.051832831428571,0.0,2.7986,0.0
mp-30943,Mg2P2Se6,10,6,148,249.71224882379616,3.88560064823108,24.971224882379616,1.85054648,-4.388379354000001,-0.8816437593348221,0.0,2.0382,0.0
mp-7921,Mg1Pd1F6,8,6,148,94.97931247981346,4.278400244972944,11.872414059976682,-1.51059418,-4.71401053875,-2.427327279375,1.0,1.8285,0.0
mp-1315,Mg1S1,2,0,225,35.33066670617066,2.649386380469676,17.66533335308533,3.48975604,-4.545918240000001,-1.66150344875,0.0,2.7574,0.0
mp-1185959,Mg2S4,6,6,166,122.96464101417256,2.388487798502099,20.49410683569543,3.79466102,-4.456197036666666,-1.153800653333332,0.0,1.133699999999999,0.0
mp-1195096,Mg4Sb12Xe4F92,112,4,14,1871.6863321376209,3.399144027724301,16.711485108371612,-3.0376055,-4.380915481875,-2.306906462946429,1.0,1.6103,0.0
mp-1018040,Mg2Se2,4,2,186,105.19956856773544,3.260005132094054,26.299892141933864,0.58356759,-4.03748746,-1.474296713671875,1.0,2.5765,0.0
mp-1103590,Mg4Se8,12,0,205,269.58582676896225,4.489727594922995,22.465485564080183,2.88474898,-4.007350603333333,-1.1332529465625,0.0,1.968499999999999,0.0
mp-12630,Mg2Se2O8,12,3,63,144.63734978159653,3.840585880486441,12.05311248179971,1.32942344,-6.023788655833333,-1.8707510703906247,0.0,2.868999999999999,1.0
mp-1016197,Mg2Si2As4,8,1,122,187.03667895849475,3.590920896404339,23.379584869811843,3.34683907,-4.39634083875,-0.297332561249999,1.0,1.303199999999999,0.0
mp-2961,Mg2Si2P4,8,1,122,166.4438551295536,2.28140300526044,20.8054818911942,4.14841178,-4.882946115,-0.411262341071428,1.0,1.3728,0.0
mp-2713729,Mg6Sn6S18O72,102,6,161,1472.5948355641442,2.917417925425492,14.437204270236707,0.54470105,-6.6067237338235305,-2.05197946132353,1.0,2.243,1.0
mp-1009082,Mg2Sn2As4,8,1,122,221.55629888669645,4.389877286430483,27.694537360837057,3.21942896,-4.04382228375,-0.29875055,1.0,0.4034,0.0
mp-1029791,Mg4Sn4N8,16,3,33,223.1496246597458,5.090742861541945,13.946851541234112,6.16246188,-6.104413185625,-0.5252638456250001,1.0,1.0648,0.0
mp-9650,Mg2Ta4O12,18,1,136,205.7041419513851,7.785037426935283,11.428007886188064,2.50467019,-9.442702570000002,-3.325803555518519,0.0,2.8397,1.0
mp-13033,Mg1Te1,2,0,216,67.5217326217723,3.7357481379341433,33.76086631088615,2.01316235,-3.458457757500001,-1.071569803333334,1.0,2.3186,0.0
mp-2604,Mg4Te8,12,0,205,356.0161089071634,5.214696303880582,29.668009075596952,4.8863282,-3.488444862499998,-0.849417595277775,0.0,1.116199999999999,0.0
mp-1210588,Mg2Te2O8,12,4,13,131.64439596470618,5.446714222102258,10.97036633039218,5.8230067,-6.151184784166666,-2.05691479611111,0.0,1.475099999999999,1.0
mp-2713802,Mg6Ti6S18O72,102,6,161,1421.0346807942196,2.526573914147064,13.931712556806074,0.17466121,-7.107267942156864,-2.323940130735294,1.0,2.2063,1.0
mp-28232,Mg2Ti4O10,16,3,63,182.085469745022,3.6484799494604223,11.380341859063874,1.99527746,-8.69270153625,-3.422544152083334,0.0,2.7175,1.0
mp-1222070,Mg1Ti4P6O24,35,6,148,452.5357988260926,2.882692242816501,12.929594252174075,1.04102609,-8.317685487714286,-3.047504249034013,1.0,2.4111,1.0
mp-1221997,Mg2Ti8Fe2O20,32,3,38,378.3020997425784,3.789080674418961,11.821940616955574,3.08086603,-8.9197262990625,-3.222096965208333,0.0,1.394299999999999,1.0
mp-1245745,Mg1Ti1N2,4,6,166,39.18412974966379,4.245641581573597,9.796032437415947,6.55116511,-8.035151845,-1.484522464583333,0.0,0.365,0.0
mp-557384,Mg4U4B8O28,44,3,57,585.8796063228535,4.488931007984306,13.31544559824667,1.95414581,-8.743513705681819,-3.205660014621211,0.0,2.191099999999999,1.0
mp-2271432,Mg1U1O4,6,3,65,77.30326246727465,7.009875181490162,12.883877077879108,4.02168949,-8.909627118333333,-3.457339777499998,0.0,1.6809,1.0
mp-1040943,Mg6V12O24,42,6,156,471.9696302508868,4.014800086228653,11.237372148830636,5.37682193,-8.357395600952382,-2.701663290238095,0.0,0.000199999999999,1.0
mp-504510,Mg1V2O6,9,4,12,117.02743487608689,3.152644305839352,13.00304831956521,2.94061199,-8.02515245,-2.526702651666667,0.0,2.7654,1.0
mp-557238,Mg8V16Pb8O56,88,4,14,1233.7097228248197,4.795793926871902,14.01942866846386,1.71537655,-7.697783279999999,-2.411723619999999,0.0,2.545199999999999,1.0
mp-1222158,Mg1V4Cu3O14,22,5,1,308.9463325019805,3.454416971984667,14.043015113726389,1.08978636,-7.460238555909092,-2.026821811590909,0.0,0.348099999999999,1.0
mp-1221990,Mg2V2Cr2O8,14,3,74,154.93334662208747,4.099334715579239,11.066667615863391,3.90063664,-8.409830824285715,-2.672792599285713,0.0,1.857899999999999,1.0
mp-27186,Mg2V2O6,10,3,63,139.19166731988958,2.9405875084614843,13.919166731988955,1.09913727,-7.880577794,-2.768925973999999,0.0,2.7895000000000003,1.0
mp-1210656,Mg2Zn4As4O16,26,4,14,360.20297995011225,3.991912110940353,13.85396076731201,0.23977157,-6.093215264999999,-2.01060831576923,0.0,2.705,1.0
mp-1025315,Mn1Al2Te4,7,1,121,223.73012807779244,4.596491837007969,31.961446868256065,4.22012296,-4.768623058571429,-0.5934244120853861,0.0,0.325199999999999,0.0
mp-752598,Mn4As8O16,28,1,135,423.3216319920256,4.217292372212471,15.118629714000914,2.1907539,-7.228655529999996,-1.758069190418715,0.0,2.0961,1.0
mp-19409,Mn4As8O24,36,6,162,375.6570854934846,5.318180321037587,10.434919041485683,3.57856145,-7.185722136388888,-1.831274760047892,0.0,1.7241,1.0
mp-1104183,Mn2Bi4Se8,14,4,12,379.588680722146,6.900794106798819,27.113477194439003,4.34427463,-27.585779975714285,-0.5951909629618221,0.0,0.334999999999999,0.0
mp-18750,Mn2Fe4O8,14,0,227,139.38851348252413,5.494898879602974,9.956322391608866,4.18816085,-8.392388734285715,-1.836117058275863,0.0,0.9977,1.0
mp-20025,Mn1Ga2S4,7,1,82,152.93032801395523,3.503314537319627,21.84718971627932,2.73043654,-10.883485397142858,-0.925073553676108,0.0,1.1791,0.0
mp-20261,Mn1Ga2Se4,7,1,82,176.30233390667465,4.805648006280308,25.18604770095352,2.08616525,-14.35177879,-0.8067605758189631,0.0,0.8566,0.0
mp-554980,Mn2I4O12,18,4,4,272.8047705078644,4.927276025923084,15.155820583770245,2.93545411,-5.820314838888889,-1.165002999770115,1.0,2.2873,1.0
mp-1221979,Mn1In2Te4,7,1,82,247.91949115458263,5.324653791873215,35.41707016494038,4.11647016,-23.600586972857144,-0.527813733497538,0.0,0.344399999999999,0.0
mp-542070,Mn4N8O24,36,0,205,447.1539949730617,2.65814364489158,12.42094430480727,-0.09352019,-7.292616733611112,-1.123023754492338,1.0,2.7614,1.0
mp-780939,Mn4N16O48,68,5,2,1095.8777690853108,1.836237650728258,16.115849545372217,-2.358278089999999,-6.874987022794118,-0.88141888561359,0.0,0.1423,1.0
mp-19442,Mn1Ni6O8,15,0,225,144.6642070855784,6.142112964309543,9.644280472371891,4.80416538,-6.923200371999999,-1.361432144528734,0.0,1.4245,1.0
mp-542139,Mn4P8O24,36,4,15,451.56344657925473,3.131332518405578,12.543429071645964,2.30835641,-8.115417330555555,-2.595336400246305,1.0,2.304,1.0