material_id,composition,nsites,crystal_system,space_group,volume,density,density_atomic,efermi,energy_per_atom,formation_energy_per_atom,is_gap_direct,band_gap,is_oxide
mp-1105715,Ti4Ge4S12,20,3,62,434.35899785867554,3.313776287212382,21.717949892933778,4.01828546,-6.167187986999997,-1.180468272166663,0.0,0.323699999999999,0.0
mp-574169,Ti2Ge2Te12,16,4,12,500.975959300474,5.874195211851292,31.310997456279622,5.29405764,-22.748924890625,-0.334789833958332,0.0,0.336699999999999,0.0
mp-1205304,Ti2I4O14,20,3,36,298.9699139845672,4.595232181482023,14.94849569922836,1.89985839,-6.146762333000001,-1.588837904833334,0.0,2.536299999999999,1.0
mp-23264,Ti4I12,16,3,59,616.572048916698,4.616975519632068,38.535753057293626,3.0097426,-4.205900332500001,-1.089017867083334,1.0,0.180899999999999,0.0
mp-541013,Ti2I8,10,4,15,403.0048734279414,4.577633696087508,40.30048734279414,1.73853261,-3.829497920999998,-1.031189425666664,0.0,1.0859,0.0
mp-19082,Ti2Mn2O6,10,6,148,107.83263051258716,4.644506556173096,10.783263051258718,3.64199834,-9.334882121,-2.9546040562528733,0.0,2.004899999999999,1.0
mp-27850,Ti2N2Cl2,6,3,59,104.2300896701422,3.101115773472359,17.371681611690367,2.47889666,-11.178653548333337,-1.772338020972223,1.0,0.5636999999999991,0.0
mp-1216943,Ti2Nb2P6O24,34,6,161,488.3853413335765,2.8947251591327063,14.364274745105192,-0.06113991,-8.471452521470589,-2.964467245427171,0.0,2.7411000000000003,1.0
mp-29699,Ti2Nb6O12,20,6,148,266.3836037693696,5.268453512931599,13.31918018846848,3.753523,-9.692260502500002,-2.903543185833335,0.0,0.520799999999999,1.0
mp-1216682,Ti1Ni4Ge1O8,14,0,216,146.37989859974792,5.482298823260356,10.455707042839135,4.14042932,-7.313802467142857,-1.940748564880951,1.0,2.4005,1.0
mp-924130,Ti1Ni1Sn1,3,0,216,51.52463255869068,7.260028479048589,17.174877519563562,7.66299415,-6.424489200000001,-0.529422349444445,0.0,0.4527,0.0
mp-390,Ti2O4,6,1,141,68.78397225482972,3.856139057916947,11.463995375804954,1.95774287,-9.438526794166666,-3.508055451944444,0.0,2.0586,1.0
mp-1203568,Ti4P8S32Cl8,52,4,14,1508.7721920901097,1.924889590115913,29.01484984788672,0.41409843,-5.229656517307692,-0.9580871936630012,0.0,1.8109,0.0
mp-557289,Ti4P8Cl32O12,56,4,14,1372.7425766033552,2.135937030372225,24.51326029648849,-1.1829977,-5.394423262142859,-1.94023294197279,0.0,2.7291,1.0
mp-707483,Ti4P8H16O36,64,4,14,645.6311589273591,2.652628237831694,10.087986858239988,0.00479553,-7.133555729531251,-2.331133612819942,0.0,2.9959,1.0
mp-761010,Ti4P8O28,40,4,14,532.326265020756,2.7676613579293683,13.3081566255189,0.35334009,-8.297348034749984,-2.961131424511889,1.0,2.6682,1.0
mp-559493,Ti8P8Cl56O8,80,3,61,2417.554077896839,1.884825460537777,30.21942597371049,-1.47293505,-4.957864205875,-1.837991591172619,0.0,2.602,1.0
mp-27664,Ti2P2Cl18,22,5,2,582.6535105366414,2.268099229287961,26.484250478938247,0.04086016,-4.270316570454546,-1.547784684816017,0.0,2.1747,0.0
mp-554704,Ti4P4H4O20,32,4,4,358.1465258049189,2.964485356406115,11.192078931403715,1.09084477,-7.9432124315625,-2.762470305840774,0.0,2.85,1.0
mp-989624,Ti4P4N12,20,4,15,196.4848437234296,4.085692904770749,9.824242186171478,6.60357758,-10.9222667405,-1.057049672678572,0.0,0.5396000000000001,0.0
mp-1541018,Ti2P2O8F2,14,4,15,176.37702899221495,3.047293318889422,12.59835921372964,3.10497933,-8.169380259285715,-3.166999982568028,0.0,2.4692,1.0
mp-9920,Ti2S6,8,4,11,153.2064428549375,3.12285272805444,19.15080535686719,4.34122707,-6.41866354375,-1.341020863958332,0.0,0.2261,0.0
mp-505270,Ti4S4O20,28,4,15,333.9744584548558,3.180702543672739,11.927659230530564,0.8703580200000001,-7.798244549821428,-2.54486503422619,0.0,2.574599999999999,1.0
mp-1043703,Ti2Sb2P6O24,34,6,161,470.51947961034506,3.208297481340644,13.83880822383368,0.88066347,-7.834115391470588,-2.678442103662465,1.0,2.2085,1.0
mp-505113,Ti2Sn12F32,46,4,15,754.0604243456492,4.686579413252424,16.39261792055759,1.26845577,-5.5559405489130445,-2.83530745557971,0.0,2.7165,0.0
mp-961682,Ti1Sn1Pd1,3,0,216,58.88011017655135,7.6990715914987025,19.62670339218378,6.5459238,-20.84722178,-0.6324236455555551,0.0,0.203899999999999,0.0
mp-1216939,Ti8Te8O24F16,56,4,14,838.4090628655888,4.142778462578939,14.971590408314086,3.79221921,-6.995415072857143,-2.751074262142857,0.0,2.7386,1.0
mp-752445,Ti4V8O28,40,0,205,632.404360154983,2.749121630419838,15.810109003874576,-0.50011998,-8.7615947285,-2.691691609333334,0.0,2.1462,1.0
mp-2713749,Ti6Zn6S18O72,102,6,161,1436.2772402369976,2.784892658811554,14.081149414088213,-0.04804424,-6.873823073725491,-2.112302697892158,1.0,2.2227,1.0
mp-1016108,Ti4Zn4N8,16,3,33,192.46127318774413,4.876130444541075,12.028829574234008,2.89351753,-7.48594844625,-1.028000667083334,0.0,2.342,0.0
mp-15361,V6P18O54,78,4,9,951.2175484936732,3.015073276261377,12.195096775559913,3.89498962,-8.026630277948733,-2.652632147866316,1.0,2.1791,1.0
mp-849323,V8S16O64,88,3,61,1082.8112848742533,2.982028405338717,12.304673691752878,0.71386679,-7.0966124825,-1.919856732954545,0.0,1.3168,1.0
mp-557295,V8Se16O48,72,1,103,984.8917052379992,4.111952207694192,13.679051461638878,2.31779324,-6.701959699166674,-1.617126915243063,1.0,2.051,1.0
mp-770389,V8S12O48,68,4,14,883.2371935115485,2.933426295442554,12.988782257522772,1.17921188,-7.379349703676471,-2.087677768235294,0.0,1.9278,1.0
mp-19452,V2Cd1P4O14,21,5,2,263.359281753179,3.544674492867896,12.54091817872281,2.23592192,-7.842735266190477,-2.60172714707483,0.0,1.980199999999999,1.0
mp-18740,V2Cd2O7,11,4,12,156.1095265204487,4.666466122765736,14.191775138222608,-0.20574979,-7.051502239090909,-2.076633188636363,0.0,2.5598,1.0
mp-559685,V8Cd16Te12O60,96,3,19,1415.6858794497912,5.509699415436565,14.746727910935324,2.358307,-6.184712954270833,-1.782330218645833,1.0,1.8537,1.0
mp-1217403,V4Cd10P16O56,86,3,20,1106.2630688838333,4.081947214568742,12.86352405678876,1.69899443,-7.232593953953489,-2.468999548538206,1.0,2.1237,1.0
mp-540685,V2Cd1O6,9,4,12,107.27274426030148,4.803170970816857,11.919193806700164,1.02080039,-7.604842957777777,-2.180888695555554,0.0,2.2611,1.0
mp-21665,V8Cd4P8O36,56,3,62,694.802044398194,4.017365848155961,12.407179364253464,3.26586717,-7.872795388214286,-2.552051214948979,0.0,1.480799999999999,1.0
mp-18729,V4Co2P4O20,30,4,14,355.3368177827339,3.5773616109255792,11.844560592757796,3.39469044,-8.183428283666666,-2.475975886285714,0.0,0.083499999999999,1.0
mp-2234110,V2Cu1O6,9,5,2,115.40065872957562,3.761738403233878,12.822295414397292,1.1243986,-7.769822293333334,-1.997068422222222,0.0,0.523699999999999,1.0
mp-558123,V8Ge4O16F8,36,3,62,432.7817463415937,4.243875438865562,12.02171517615538,2.5396924,-7.789612247499999,-2.632902384722221,0.0,1.876599999999999,1.0
mp-554784,V4Ni2P4O20,30,4,14,352.0807515308878,3.608183371086705,11.736025051029594,2.48556761,-8.085132185333334,-2.467898457285715,0.0,1.569799999999999,1.0
mp-28162,V6Ni3O18,27,5,2,289.30911132681416,4.41793024636892,10.715152271363488,1.80809144,-8.074746667222223,-2.115222795000001,0.0,2.1245,1.0
mp-25279,V4O10,14,3,59,175.71849611799263,3.437530505956599,12.551321151285189,-0.53606004,-8.418681412142858,-2.2890218171428582,0.0,2.161,1.0
mp-1648259,V6O3F15,24,6,145,297.3962643381258,3.565810937481338,12.391511014088572,1.21502093,-7.132360180416668,-3.046730802916667,0.0,1.3457,1.0
mp-648414,V16P8S80,104,4,14,2399.0258220016763,2.511238314692027,23.06755598078535,3.74934962,-5.8499917774038455,-0.852539366607142,1.0,1.1465,0.0
mp-28207,V8S8O44,60,4,14,813.3702405461183,2.792897796929049,13.55617067576864,-0.90830281,-7.392509779833333,-2.001036291166666,1.0,2.3616,1.0
mp-972384,V4Se4O22,30,4,15,387.4248654458864,3.735727940181562,12.914162181529548,-0.02918,-6.881702452333333,-1.575888708979166,1.0,2.1812,1.0
mp-1194518,V8Se8O36,52,4,14,697.1253448831092,3.84735224286961,13.406256632367484,-0.14154596,-7.14384602846154,-1.782978017668271,1.0,2.259,1.0
mp-29173,V8Se12O44,64,4,14,877.9795561350725,3.8942734190538433,13.718430564610507,0.30597816,-6.858528091406249,-1.665833239658202,0.0,2.1989,1.0
mp-28256,V4Se18,22,4,15,571.9504613813261,4.717982675466317,25.99774824460573,2.35642108,-14.729709210454546,-0.458509797869319,0.0,0.722,0.0
mp-772047,V8Si4O16,28,3,62,310.5400070708814,4.14875094109887,11.090714538245765,5.12644975,-8.836956966785715,-2.639103511071429,1.0,1.8974,1.0
mp-773455,V8Sn4O28,40,0,205,679.7789594889717,3.249742804212661,16.994473987224293,-0.153410799999999,-7.940311198750001,-2.259000095750001,1.0,2.6767000000000003,1.0
mp-17458,V4Zn4O14,22,4,15,291.6492891226588,3.92514244937028,13.25678586921176,-0.30502074,-7.199875484545455,-2.170509448636363,0.0,2.5529,1.0
mp-554700,V8Zn12Te4O40,64,4,14,919.2470212035054,4.232091488055301,14.363234706304771,0.46870204,-6.67069716015625,-2.010074728072917,1.0,2.8675,1.0
mp-1048867,V12Zn6O24,42,6,156,475.3744004543258,4.8475317492640855,11.318438106055376,4.75457838,-7.943809686666666,-2.341038290952379,0.0,1.3106,1.0
mp-1195122,V12Sb8Cl96,116,1,135,3614.394916846334,2.292003801914564,31.15857686936495,-0.01591533,-4.156479819655172,-1.402178168275862,1.0,0.0264,0.0
mp-1100976,V6Ag2O16,24,4,11,297.5290154136651,4.338611760384768,12.397042308902712,1.9933813999999992,-7.8805797025,-2.074051041805555,0.0,1.162,1.0
mp-1204387,V6As4H8O26,44,5,2,495.5133886777586,3.449616612636108,11.261667924494514,1.0981065,-7.090738578636365,-1.886369392500001,0.0,1.4995,1.0
mp-1216514,V4Cd3P6O24,37,5,1,471.0922704414106,3.915521504138552,12.73222352544353,1.86283135,-7.691361533783785,-2.54380585480695,0.0,2.0024,1.0
mp-1200219,V16Cr8O52,76,4,14,1176.326960762548,2.91219606922689,15.477986325823,1.51868619,-8.675588550921054,-2.361630009605264,0.0,2.3584,1.0
mp-558525,V16Fe8O52,76,4,14,1113.1772620538131,3.123334315462979,14.647069237550172,-1.08846359,-8.372212518421051,-2.182783057105263,0.0,2.3115,1.0
mp-755181,V4O5F7,16,5,1,195.0717863432944,3.54757956106518,12.1919866464559,-0.42342444,-7.417511557500026,-2.762986811875025,0.0,1.5045000000000002,1.0
mp-559911,V8S18Br8,34,1,129,868.9096494825084,3.103436416186661,25.55616616125025,2.53485183,-5.846914895588235,-1.133465099852939,0.0,0.691499999999999,0.0
mp-19478,V4Ag8P8O32,52,4,14,688.9957096775776,4.401980297509219,13.249917493799568,1.69924911,-7.13908833826923,-2.124902452316849,0.0,2.038,1.0
mp-18889,V2Ag6O8,16,4,15,230.91046594625075,6.307370636295183,14.431904121640672,1.43985355,-5.917620826249999,-1.242050435624999,0.0,0.8996000000000001,1.0
mp-559736,V4Ag4O12,20,4,8,248.9280851708048,5.51826198310841,12.44640425854024,1.57191486,-7.1091017825,-1.754956429833332,0.0,1.628299999999999,1.0
mp-1194388,V4Ag4O4F16,28,4,14,413.2132361127612,4.031503990835478,14.757615575455755,-1.05237628,-5.862105089642857,-2.357788767738095,0.0,1.9517,1.0
mp-1201897,V4Ag4P8O28,44,4,14,551.686818396853,4.006254109800491,12.53833678174666,4.28015266,-7.618990366363636,-2.4013978359956702,0.0,2.0397,1.0
mp-557135,V4Ag4Se4O20,32,3,57,432.1314761943449,4.884291457419805,13.504108631073278,0.97989421,-6.566524234062499,-1.546204202688801,0.0,0.9513,1.0
mp-1072660,V2As4,6,4,12,96.19612354808386,6.931897586474049,16.032687258013976,6.61455886,-14.932099456666668,-0.430553555,1.0,0.003699999999999,0.0
mp-510763,V4As4O20,28,3,62,359.9828494900298,3.798389159799684,12.856530338929636,0.04456704,-7.4453244775,-1.946205387857143,0.0,2.1315,1.0
mp-18946,V2B2O6,10,6,167,89.69635938619571,4.063605840500683,8.969635938619572,3.48741764,-8.848075437,-2.726639265833333,0.0,1.874699999999999,1.0
mp-754594,V1B1O4,6,1,82,84.61988903978136,2.467658088994774,14.10331483996356,-1.36089925,-8.441007716666666,-2.515150739861112,1.0,2.6245000000000003,1.0
mp-971787,V1Br2,3,6,164,81.19421374748661,4.310131989266903,27.06473791582887,2.46396163,-5.328173076666668,-1.208906696666668,0.0,1.1332,0.0
mp-27713,V1Br2O1,4,3,71,86.84778797048746,4.335463407387269,21.711946992621865,0.22489562,-5.93408576,-1.60764572375,0.0,0.415399999999999,1.0
mp-2757308,V2Br6,8,3,40,287.6967489723293,3.355209909865499,35.962093621541165,-0.43671799,-14.50569310875,-1.039139354375001,0.0,0.6834,0.0
mp-27841,V2Br2O2,6,3,59,112.71431824743266,4.326720810140275,18.785719707905443,1.21623024,-7.211460181666666,-1.988522311666666,0.0,1.491099999999999,1.0
mp-22877,V1Cl2,3,6,164,69.84758904925907,2.896771909691129,23.28252968308636,3.35516193,-10.407318866666666,-1.609167691666666,0.0,1.255999999999999,0.0
mp-1101909,V2Cl10,12,5,2,302.6127924111765,2.504492989094516,25.21773270093137,-0.88015578,-8.560003154166667,-1.084708117916666,0.0,1.0398,0.0
mp-23061,V2Cl2O2,6,3,59,101.8269703775471,3.339568495480353,16.971161729591184,1.16428946,-7.488242895833334,-2.194772937500001,0.0,1.674,1.0
mp-1216363,V1Cu3Se2S2,8,3,35,167.31877181192775,4.601246404340043,20.91484647649097,3.32402439,-5.37187984375,-0.7906213224609371,0.0,0.891,0.0
mp-3762,V1Cu3S4,8,0,215,154.84416641947865,3.966135452969545,19.35552080243483,3.53810757,-5.59767063625,-0.8558000925,0.0,1.0358,0.0
mp-21855,V1Cu3Se4,8,0,215,173.29038260089234,5.341420812523915,21.661297825111543,2.79078136,-13.5564656925,-0.5719401107812501,0.0,0.8164,0.0
mp-991652,V1Cu3Te4,8,0,215,204.8795991725364,6.094756833162131,25.609949896567045,4.82548363,-4.697677506250001,-0.453333799583333,0.0,0.5741,0.0
mp-559931,V2F6,8,6,167,99.16001073786146,3.61502830984717,12.395001342232682,-0.39344641,-9.10544294375,-3.238528048750001,1.0,1.6025,0.0
mp-554799,V2F8,10,4,14,125.01803040902442,3.372005030603369,12.50180304090244,-2.43112952,-8.356199807,-3.037462301,0.0,2.2417,0.0
mp-1207977,V4Fe8B4O20,36,3,55,374.8948769402929,4.490284788144449,10.413746581674804,3.46997186,-8.599935727222224,-2.217364028796297,0.0,1.645999999999999,1.0
mp-567636,V1Fe1Sb1,3,0,216,47.62263842384987,7.969117301040473,15.874212807949958,7.539516499999999,-7.502861936666666,-0.275219096666666,0.0,0.3487,0.0
mp-23749,V2H24Cl6O12,44,4,14,499.0003286020699,1.766307786188143,11.340916559137952,-0.89545484,-5.234808737272727,-1.3684778579545451,0.0,2.2597,1.0
mp-1018138,V1I2,3,6,164,104.47009083830956,4.84397024184427,34.82336361276985,3.96903884,-4.7851471,-0.7411700000000001,0.0,1.037,0.0
mp-1191502,V2In2Se4O16,24,4,6,358.6726998424669,4.182216740076696,14.944695826769456,1.32483864,-6.578354140416667,-1.71013823969618,0.0,2.1645,1.0
mp-22443,V2In2O8,12,3,63,163.53157048743634,4.666018179138492,13.627630873953027,1.32522151,-7.4886132,-2.216125894444445,0.0,2.9684,1.0
mp-541404,V4O8,12,4,12,135.43671915122044,4.067600255193656,11.286393262601704,2.16139927,-8.849077536666668,-2.522468176666668,0.0,0.7584000000000001,1.0
mp-764900,V6O6F6,18,4,4,196.95752773759372,4.347299804964311,10.942084874310764,2.84410299,-8.1676143975,-2.852374580833333,0.0,1.344799999999999,1.0
mp-695981,V4P4H16O24,48,4,14,470.6954237560733,2.567470554363907,9.80615466158486,1.1847275,-6.807678130833335,-1.993693849136904,1.0,1.9898,1.0
mp-26728,V2P4O14,20,5,2,250.06713791786447,2.986638219213912,12.503356895893225,0.93001049,-8.0818820665,-2.626824050928571,0.0,1.3194,1.0
mp-27523,V2P2Cl18,22,3,67,612.5102222548071,2.174211277663543,27.84137373885487,0.92950281,-8.117020799545456,-0.983966061406926,0.0,0.123799999999999,0.0
mp-1101197,V4P4H4O20,32,5,2,336.7761712674212,3.213236365758687,10.524255352106913,1.145048759999999,-7.694896855312555,-2.365602972924161,0.0,1.4516,1.0
mp-18835,V4P4O16,24,3,63,257.9017588726252,3.757927184825147,10.745906619692716,3.12442543,-8.415898611666668,-2.700694675773809,0.0,1.834699999999999,1.0
mp-1104878,V2P2O8F2,14,4,15,171.68346134557714,3.190075459112797,12.263104381826938,0.7656978,-7.874905545714286,-2.702751832806124,0.0,1.5351,1.0
mp-763482,V2P2O10,14,1,85,156.48622675010432,3.436233871776135,11.177587625007453,0.84520043,-8.107373217142854,-2.501775414234692,0.0,2.270299999999999,1.0
mp-541155,V4S16,20,4,15,446.1816509535987,2.667712496982679,22.30908254767993,3.07144873,-6.0777620415,-0.9502931734999992,0.0,0.9239,0.0
mp-22092,V4S4O20,28,3,62,326.40975909201705,3.316980233623815,11.657491396143469,1.522546419999999,-7.521166373214284,-2.09801342142857,0.0,1.5119999999999991,1.0
mp-1216305,V2Sb2Se8O24,36,4,14,525.778221151774,4.298594905037259,14.604950587549276,1.85432014,-6.350314581944445,-1.5407542885763892,0.0,1.5958,1.0
mp-29146,V4Sb4O16,24,1,109,264.57220185605274,5.94239454971778,11.023841744002198,6.2679598,-7.735923113333325,-2.235131224999993,0.0,0.5192999999999991,1.0
mp-1029262,V2Zn4N6,12,3,36,138.4008410818494,5.36983395770496,11.53340342348745,2.67297547,-6.681273994166666,-0.5782362400000001,0.0,1.1715,0.0
mp-556959,V4Zn4Se8O28,44,4,14,655.1468548617518,3.916131331479169,14.889701246857994,1.12739701,-6.423269857954545,-1.69861534247159,0.0,2.0909,1.0