material_id,composition,nsites,crystal_system,space_group,volume,density,density_atomic,efermi,energy_per_atom,formation_energy_per_atom,is_gap_direct,band_gap,is_oxide
mp-559068,Na2Pd1Se2O8,13,5,2,205.7535503095738,3.537429831710557,15.827196177659523,0.04233665,-5.587414159230769,-1.399811515957393,1.0,1.7401,1.0
mp-27562,Na2Pd3O4,9,3,71,109.52441305840148,6.507818827884617,12.169379228711277,3.29030401,-5.365046265555554,-1.141165042528733,0.0,0.4208,1.0
mp-29359,Na8Pd4Cl16,28,1,130,676.6982908305749,2.887843875141044,24.16779610109196,0.30256718,-9.2317691875,-1.417687710357142,0.0,1.1864,0.0
mp-3622,Na4Pd2F8,14,4,14,185.3299005796603,4.092763760094411,13.237850041404306,0.17882764,-8.416227555,-2.331523762142857,0.0,1.2356,0.0
mp-1210356,Na6Pd3F18,27,6,150,371.88531477780384,3.568446353478911,13.773530176955695,-2.42312151,-7.664026172222223,-2.2368059,0.0,2.0894,0.0
mp-685478,Na32Pd16O48,96,4,5,1053.2821762055285,5.054953458887578,10.971689335474254,2.6690514,-5.141967877708333,-1.357433480668103,0.0,0.8889999999999991,1.0
mp-10223,Na4Pd2S4,10,3,36,198.51464712815616,3.6224607408402543,19.851464712815616,2.20171611,-10.223586949,-0.991824366124998,0.0,0.9447999999999992,0.0
mp-1078751,Na4Pd2Se4,10,3,36,223.88759817153823,4.603182321098053,22.388759817153822,1.78296199,-12.699911419,-0.9575243766249992,0.0,0.6253000000000001,0.0
mp-1192379,Na6Pt3F18,27,6,150,378.49574506478257,4.673085301214004,14.01836092832528,-1.50728863,-10.87019524703704,-2.273279053703704,0.0,2.7424,0.0
mp-22313,Na2Pt1O2,5,3,71,67.43566226953892,6.723900463580867,13.487132453907783,3.08070686,-5.092301365999999,-1.362201988551723,0.0,1.463299999999999,1.0
mp-560860,Na8Pt4O12,24,3,70,266.3709519996665,7.207967774786441,11.09878966665277,3.12593872,-5.430639367499999,-1.497563052126436,0.0,1.5488,1.0
mp-10246,Na4Pt2S4,10,3,36,198.8505769843545,5.097151854808518,19.885057698435453,3.08549978,-15.965467078,-1.028251837124997,0.0,1.1433,0.0
mp-14588,Na4Pt2Se4,10,3,36,224.3236767676761,5.906890991229101,22.43236767676761,2.5702947,-18.421920362,-0.974080661624998,0.0,0.8690000000000001,0.0
mp-1210286,Na8Re4O12,24,2,193,322.33358114157244,5.773617537412475,13.430565880898852,4.35053769,-7.007759720416665,-2.011853257126435,0.0,1.995499999999999,1.0
mp-648,Na2S1,3,0,225,68.60267970013784,1.889080802384308,22.867559900045947,0.35970853,-6.323377323333333,-1.2689239159375,1.0,2.4399,0.0
mp-28127,Na8S20,28,3,62,642.57460262411,2.132525901252682,22.94909295086107,2.10622043,-7.364453934642857,-0.6068315702232141,0.0,1.7772,0.0
mp-7774,Na4Sb2Au2,8,3,63,205.5814707984958,5.891666569742555,25.697683849811973,2.95759136,-21.4042422475,-0.549332992499998,0.0,0.361799999999999,0.0
mp-1266,Na2Se1,3,0,225,77.2135617348962,2.686924163065691,25.73785391163207,0.07276857,-8.416217666666666,-1.2695772096875,1.0,2.0153,0.0
mp-1190423,Na4Se4O14,22,5,2,304.6580761094574,3.4435755476066943,13.8480943686117,-0.62144498,-5.519552674090909,-1.491280715222374,0.0,2.8061,1.0
mp-18562,Na8Si8Se20,36,3,63,974.8272141079,3.386059689365424,27.078533725219444,1.07292463,-4.435905582222222,-0.989946137164152,0.0,2.6679,0.0
mp-574684,Na32Sn16As32,80,1,142,2232.092808993232,3.743886619762129,27.9011601124154,2.42788082,-3.5452173265,-0.338565631051724,1.0,0.477599999999999,0.0
mp-778057,Na16Sn8O16,40,3,60,649.0353916301619,4.025773316344975,16.225884790754048,3.62828426,-5.038759650499999,-1.720972566051723,0.0,2.2658,1.0
mp-761184,Na8Sn4O12,24,4,15,287.45097002815373,4.9145953319426425,11.977123751173073,2.90691038,-5.65589207875,-2.066409340876436,0.0,2.7011000000000003,1.0
mp-571470,Na48Sn24Se72,144,3,62,4344.293166967193,3.683850317316952,30.168702548383287,1.78900763,-3.8780447564583342,-1.014586782256645,1.0,1.3646999999999991,0.0
mp-1221310,Na8Sr12As16,36,4,14,971.0615568756772,4.162377088717068,26.97393213543548,2.80498865,-13.416899436944444,-1.039625181388888,0.0,0.543899999999999,0.0
mp-1221315,Na8Sr12P16,36,4,14,895.5099139688551,3.209669374924957,24.875275388023752,4.32928589,-10.822408625,-0.980892002989417,0.0,0.932099999999999,0.0
mp-557927,Na8Sr4V12O36,60,4,14,852.3828532692862,3.35401849805098,14.206380887821435,1.17879742,-7.660386036,-2.583103575850574,0.0,2.251,1.0
mp-18975,Na4Sr2V8O24,38,1,125,589.7255638491392,2.981116150610746,15.519093785503664,-0.66863497,-7.8035659018421075,-2.535827691987297,1.0,2.873,1.0
mp-1078535,Na2Tc1F6,9,6,164,112.1623578103663,3.819188551598377,12.462484201151812,0.81761732,-8.453204640000001,-2.69218343,0.0,1.5541,0.0
mp-2784,Na2Te1,3,0,225,95.90002973074064,3.005584104098432,31.966676576913542,0.7018901200000001,-11.976331103333337,-1.127802620000001,1.0,2.0282,0.0
mp-28713,Na8Te8O20,36,4,15,539.9559653055198,4.68896409500429,14.998776814042218,2.6556132,-5.488673238888885,-1.7431334201213242,0.0,2.9290000000000003,1.0
mp-20254,Na4Te4O14,22,3,74,271.9051456839135,5.046567171863214,12.359324803814248,3.11732603,-5.645614324090908,-1.681452471462903,0.0,0.7191000000000001,1.0
mp-541918,Na4Te8Mo2O24,38,4,15,577.3370369049139,4.856828968075345,15.193079918550367,2.992433799999999,-6.238902251052631,-1.74006818260133,1.0,2.4592,1.0
mp-541917,Na4Te8W2O24,38,4,15,571.4796468225549,5.417428302660353,15.03893807427776,3.09909551,-6.393922801578947,-1.78390556891712,0.0,2.9425,1.0
mp-27537,Na8Te4O16,28,3,60,359.89437014679044,4.384687871044092,12.853370362385371,2.15172913,-5.469735261964284,-1.809936480453611,1.0,1.8037,1.0
mp-1190141,Na8Te4S12,24,4,14,616.9087338725751,2.904618695480478,25.704530578023963,1.89483436,-3.951104963749999,-0.9108006049042132,0.0,1.7828,0.0
mp-573581,Na8Te4Se12,24,4,15,671.663154742201,4.059082855596543,27.98596478092504,1.4436564,-13.3448317375,-0.764787380364583,0.0,1.2031,0.0
mp-680191,Na16Ti16Se72,104,4,4,2794.1520998390906,4.052367369450324,26.86684711383741,2.53006531,-4.962594963076923,-1.12123889465531,0.0,0.7175,0.0
mp-5996,Na8Ti8Si8O36,60,3,60,685.3620054952854,3.313306901068589,11.42270009158809,2.19976529,-8.0842712065,-3.160490493461686,0.0,2.9482,1.0
mp-3488,Na4Ti6O14,24,4,11,289.7451538065769,3.456687956033042,12.072714741940706,1.33012289,-8.243984759999998,-3.160181039813217,0.0,2.9953000000000003,1.0
mp-5449,Na2Ti6O13,21,4,12,256.7661482616155,3.4998388252537183,12.22695944102931,1.37782404,-8.761638850000026,-3.314977577512341,0.0,2.916699999999999,1.0
mp-557845,Na8Ti4S8O4,24,4,14,506.1184733519119,2.283211207162628,21.088269722996326,0.86964189,-5.957990747499999,-1.990721795181992,0.0,2.4798,1.0
mp-6138,Na4Ti2Si2O10,18,1,129,211.27653516080173,3.174143848531535,11.737585286711209,2.02052296,-7.522812717222223,-2.9956953140102183,0.0,2.9703,1.0
mp-1221267,Na2Ti1Te1O6,10,6,146,129.66479318766145,4.065300903478737,12.966479318766144,1.67368848,-6.698282016,-2.357281466275862,0.0,2.4574,1.0
mp-866132,Na2Tl1Sb1,4,0,225,106.7900935339584,5.786346753282594,26.6975233834896,3.62015503,-21.919321475,-0.415826112499999,0.0,0.3797,0.0
mp-556102,Na4U2W4O20,30,5,2,432.3698842890468,6.234617462886831,14.412329476301558,1.07706979,-8.575527694333335,-2.617479555850574,0.0,2.0214,1.0
mp-1190548,Na4U4O14,22,4,12,318.8992880527234,6.602942488442353,14.495422184214702,2.56546953,-8.719863045909092,-3.27422771752351,0.0,1.5582,1.0
mp-568694,Na6U3Br18,27,6,164,886.7977060355163,4.288608541438434,32.8443594827969,1.20507302,-4.441958122962961,-1.797899147713918,0.0,0.0866,0.0
mp-1103472,Na2U1F8,11,1,139,155.26914332132836,4.662792840384238,14.115376665575305,-1.914332519999999,-13.540854517272727,-3.351888938636364,1.0,2.5956,0.0
mp-23546,Na2U1I6,9,6,148,384.55643388797296,4.51425578163922,42.72849265421922,2.27311384,-3.8710840299999982,-1.302314334750954,0.0,0.3792,0.0
mp-554191,Na4U2O8,14,3,55,191.8735185298005,6.023526784465823,13.705251323557182,2.6412862500000003,-7.846602709999987,-3.022789054679788,0.0,1.866,1.0
mp-15385,Na8U4P8O36,56,3,33,783.9013977655269,4.151451030744399,13.99823924581298,1.23388882,-7.905734892142858,-2.9530600590745952,0.0,2.2471,1.0
mp-1190512,Na4U2Te2O14,22,3,40,308.4855765155837,5.636991654471689,14.02207165979926,2.726997749999999,-7.222355500454546,-2.517456909947752,0.0,1.880799999999999,1.0
mp-557315,Na12V18O42,72,6,147,1034.0966506985783,2.994470237225162,14.3624534819247,1.01607863,-7.802551306111111,-2.421644072590996,0.0,2.4946,1.0
mp-558049,Na8V12P8O52,80,3,56,1081.0514824577365,2.880037972609264,13.513143530721702,1.73213893,-7.788004691625001,-2.533524697477217,0.0,1.7762,1.0
mp-1120790,Na8V4F20,32,4,14,401.9407051085357,3.171404343348251,12.56064703464174,-0.06640205,-7.76868849125,-3.162678913749999,1.0,2.4549,0.0
mp-1191842,Na4V2Ni2F14,22,3,74,289.19276959282763,3.314308239773642,13.145125890583074,0.25934132,-5.730548059545454,-2.9174161566144203,1.0,2.4654,0.0
mp-554228,Na8V4O4F16,32,4,15,441.978278782402,2.839045967391547,13.81182121195006,-0.47973632,-6.0048679196875,-2.958528153157328,1.0,2.991799999999999,1.0
mp-21896,Na4W4O14,22,3,36,292.8541808885767,5.961132073288268,13.311553676753489,0.89002368,-7.975521612272728,-2.226846243887147,0.0,2.3428,1.0
mp-32533,Na2W4O13,19,4,12,277.12804788270057,5.928032237291018,14.585686730668453,0.33345889,-8.470258633157894,-2.215550446724137,0.0,1.808499999999999,1.0
mp-1190399,Na4Zn2Ge4S12,22,4,9,532.3858949030106,2.801273488303176,24.19935885922776,1.58194922,-4.434843984545455,-0.9785350497962372,1.0,2.266499999999999,0.0
mp-1190487,Na4Zn2Sn4S12,22,3,43,586.9392385632551,3.062263542868772,26.67905629832978,1.55708262,-4.320413996363636,-0.9756425161598732,0.0,1.7270999999999992,0.0
mp-554845,Na8Zn8O12,28,1,96,354.20745990688965,4.215406485026651,12.65026642524606,0.76115725,-4.569212344999999,-1.705382088965517,0.0,1.2488,1.0
mp-1094107,Na8Zn8S12,28,4,15,566.9532876110336,3.198251320346448,20.248331700394058,1.53184233,-8.12273038107143,-1.114935581562499,1.0,2.1599,0.0
mp-555300,Na6Zn9Si6O24,45,5,1,590.5519237174191,3.596679110900123,13.123376082609314,1.76981041,-6.267439329777778,-2.474306230628352,0.0,2.9909,1.0
mp-15548,Na16Zn8Fe8F56,88,4,15,1176.3887312030452,3.390246409661807,13.368053763670968,-1.13562381,-5.131607793409091,-2.7852284295689653,1.0,2.9496,0.0
mp-6402,Na4Zn2Ge2O8,16,4,7,222.0091469639192,3.710271385203417,13.875571685244946,0.0268049,-5.612706376875,-2.067949246594827,0.0,2.6397,1.0
mp-29488,Na8Zn4O8,20,4,14,258.03345167702247,3.6909986017271583,12.901672583851123,0.74424512,-4.414788165999999,-1.6469667305517222,1.0,1.4567,1.0
mp-1021465,Na4Zn2Se4,10,3,72,235.38785718769145,3.7996637090013534,23.53878571876914,0.66725541,-3.304796011999999,-1.117794387489223,1.0,2.139599999999999,0.0
mp-556536,Na2Zr1Cu2S4,9,4,12,168.5766857351447,3.866808774572941,18.730742859460523,4.48062375,-5.241192234444444,-1.243081812528735,1.0,0.0011,0.0
mp-1210267,Na4Zr2S6,12,4,12,251.24889085445707,3.085127182437877,20.937407571204755,2.12346732,-5.6258534666666655,-1.6848166517097671,0.0,1.9267999999999992,0.0
mp-7219,Na4Zr2Se6,12,4,12,286.5738536644139,4.3352198535060165,23.88115447203449,1.94454642,-13.690700610833334,-1.555228321197918,0.0,1.3166,0.0
mp-675310,Na3V5Se10,18,5,1,409.723617701732,4.511918648301651,22.76242320565178,3.31269542,-5.769806121666666,-1.080705707087523,0.0,0.1373,0.0
mp-3527,Na6Ag2O4,12,3,72,172.02520760234827,4.031744562627576,14.335433966862356,1.28504739,-4.052436596666663,-1.258432925967428,0.0,1.1444,1.0
mp-9634,Na6Ag2S4,12,3,72,275.87322207505485,2.900868431809591,22.98943517292124,0.53993639,-9.043940829166669,-1.024204659270832,0.0,2.1755,0.0
mp-8543,Na6Al2As4,12,3,72,288.8699495642333,2.825843373926701,24.07249579701944,2.06260567,-8.470480737499999,-0.6638637349999991,0.0,0.8472000000000001,0.0
mp-23705,Na6Al2H12,20,4,14,221.44512303452063,1.529701527373779,11.072256151726032,0.13945282,-4.08655173,-0.271020285249999,1.0,2.8145,0.0
mp-5122,Na6Al2P4,12,3,72,266.663803611092,1.966494208194009,22.22198363425767,2.38936207,-6.5531306308333335,-0.648331853492063,0.0,1.346,0.0
mp-9682,Na12Al4Se12,28,4,14,704.7617307973462,3.136825391798056,25.170061814190937,0.8135233900000001,-9.911444240714284,-1.288684136026784,0.0,2.383099999999999,0.0
mp-9680,Na12Al4Te12,28,4,14,876.5991270699744,3.627585103072902,31.30711168107052,2.12814458,-14.3629324725,-0.980602048214286,0.0,1.914499999999999,0.0
mp-655,Na18As6,24,2,185,588.9212956640015,2.434313130356024,24.538387319333395,1.05820111,-6.902991813333333,-0.5529736389583331,1.0,0.064,0.0
mp-30233,Na24As56,80,4,14,2189.0797853155223,3.601140324989667,27.36349731644403,1.64493586,-11.721791855375,-0.357265993125,0.0,1.5304,0.0
mp-5830,Na12As4S12,28,0,198,617.4525056158254,2.582689523048097,22.051875200565195,1.54543059,-8.082499655000001,-1.010346805848215,0.0,2.5223,0.0
mp-8686,Na12As4Se12,28,0,198,701.3479476949157,3.606112885743327,25.04814098910413,1.20038295,-10.718626007142856,-0.956518379955357,0.0,2.008099999999999,0.0
mp-28365,Na12Au4O8,24,1,136,422.2454330523813,4.686678708269582,17.593559710515887,0.72418833,-4.181844761250001,-1.316017036939655,1.0,1.9715,1.0
mp-768915,Na12Au4O12,28,1,136,393.1232426623214,5.304187006593287,14.04011580936862,1.1383546,-4.527474841071426,-1.364199505233988,0.0,1.7917,1.0
mp-15567,Na6Au2S4,12,6,167,274.61812238749945,3.991632294907518,22.884843532291622,1.05137044,-3.656643623333334,-1.060683044856322,0.0,2.3085,0.0
mp-531600,Na24B40Se72,136,1,142,3331.997421456058,3.323729226641299,24.499981040118072,2.08229781,-4.7599010422058825,-0.7078231310920591,1.0,2.9704,0.0
mp-28630,Na12B4N8,24,4,14,325.1752643683868,2.201836149495121,13.548969348682782,1.43576793,-5.180905768333333,-0.617387502217432,0.0,1.6485,0.0
mp-30975,Na12B4O12,28,4,14,331.1609980746672,2.562876732148677,11.827178502666683,1.00538155,-5.9086128871428585,-2.258836155472085,0.0,2.9485,1.0
mp-29976,Na6B2S6,14,4,15,285.60675021778866,2.046267276263283,20.400482158413475,1.38134516,-4.457626777142857,-1.154822090114941,0.0,2.5824,0.0
mp-27914,Na12Bi4O12,28,0,217,441.35703525474247,4.905318745694927,15.762751259097945,1.39687883,-4.962917893928571,-1.711620799519704,1.0,2.8428,1.0
mp-27345,Na6Bi2O8,16,4,13,206.35062909896567,5.503417807509485,12.896914318685354,1.721173649999999,-5.182272291875,-1.7188922086422411,1.0,0.9732,1.0
mp-985586,Na3Br1O1,5,0,221,93.15250142153528,2.93902544973586,18.630500284307058,0.9397745,-3.737887096,-1.615873120827586,1.0,1.8815,1.0
mp-557506,Na6Ca4Bi2O12,24,3,70,334.10434933193346,4.513884909319581,13.921014555497228,1.91426343,-5.74624901,-2.278402140344827,0.0,1.5495,1.0
mp-15572,Na6Ca6Al2As8,22,2,186,562.3445812541554,3.04661727561699,25.561117329734337,2.67369271,-3.803460384090908,-0.8518214808307201,1.0,0.9426,0.0
mp-1190339,Na6Ca6Al2Sb8,22,2,186,673.1317342094247,3.469550671203687,30.596897009519303,3.66187123,-3.528061064090909,-0.7731935399216291,1.0,0.4586,0.0
mp-38102,Na3Ce1F7,11,4,8,159.80269956056975,3.554554826036827,14.527518141869978,-1.81393698,-5.619440099999999,-3.495887479012538,0.0,2.6973000000000003,0.0
mp-28602,Na3Cl1O1,5,0,221,88.63996781954468,2.2559230926403853,17.727993563908935,0.96869593,-3.861942745999999,-1.6976095178275852,1.0,2.0299,1.0
mp-19087,Na3Co2Sb1O6,12,4,12,138.282995400937,4.858449750477542,11.523582950078085,4.0569142,-6.1239544325,-1.781557512011494,0.0,0.8215000000000001,1.0
mp-1210465,Na6Co2F12,20,4,14,231.7781124193118,3.466010166264349,11.58890562096559,0.8824886200000001,-4.9184032945,-2.654233963913793,0.0,2.7172,0.0
mp-31126,Na6Co2O6,14,5,2,187.80765940023784,3.110522646850554,13.414832814302702,1.45922335,-5.277224447142856,-1.5625870084482751,0.0,0.8294,1.0
mp-16383,Na12Cr8As12O48,80,0,230,939.9329208564448,4.167325540620695,11.74916151070556,2.20520061,-6.87737543625,-2.041517589581897,1.0,2.7029,1.0
mp-1221294,Na6Cr4P6O24,40,4,15,488.4125993090476,3.113434470321248,12.210314982726189,4.40076865,-7.555823656749999,-2.608163161153324,0.0,2.9419,1.0
mp-559281,Na12Cr8P12S48,80,4,14,1975.4811228940143,2.187722222871149,24.69351403617518,2.17812929,-5.396949751375,-0.935050118278324,0.0,1.3855,0.0
mp-1210429,Na12Cr4O16,32,3,62,469.4425283054141,2.617047087769102,14.67007900954419,1.935945939999999,-6.14021373875,-1.9564570105172407,1.0,1.033799999999999,1.0
mp-1210463,Na6Cu2F12,20,4,14,236.3565528866393,3.463685562268957,11.817827644331969,-0.24401951,-6.556383540500001,-2.5268329995,1.0,1.2227,0.0
mp-755401,Na12Cu4O8,24,1,136,397.1849240433879,2.751183003565596,16.549371835141162,1.30843653,-4.354305002499996,-1.3509231665229842,1.0,1.3047,1.0
mp-28556,Na36Cu12O36,84,3,64,1047.7359807938496,3.433113730696284,12.473047390402972,1.576230279999999,-4.723715742857143,-1.44253688273399,0.0,0.774,1.0
mp-19028,Na6Fe2P4O16,28,4,15,329.27278125293617,3.174670835946719,11.759742187604862,1.55226975,-6.975658117857143,-2.482099643815974,0.0,1.6539,1.0
mp-556723,Na12Fe8As12O48,80,0,230,959.3633757003496,4.136218411679483,11.992042196254369,1.65695853,-6.60266037875,-1.885105158081896,1.0,2.2743,1.0
mp-556540,Na6Fe6P8O32,52,4,15,688.7708334668374,2.9720749488549183,13.245592951285335,0.61301357,-7.447954185384615,-2.437781256642667,0.0,1.7179000000000002,1.0
mp-30947,Na12Fe4O12,28,4,14,375.9041172984559,3.053565068962521,13.425147046373423,1.1542144,-5.607157600714286,-1.7015766634482752,1.0,2.3505000000000003,1.0
mp-556143,Na12Ga12Te8O48,80,0,230,987.1728846100382,4.880363549549343,12.339661057625475,2.18667682,-5.922915627375,-1.984335914873563,1.0,2.0272,1.0
mp-18165,Na12Ga4S12,28,4,14,623.0431226131236,2.504093452029092,22.251540093325843,0.76736395,-4.0199008825,-1.238709873805417,0.0,2.7699,0.0
mp-17148,Na12Ga4Se12,28,4,14,709.1340737080903,3.517825543146376,25.326216918146084,0.49355993,-3.666421303214284,-1.160565190167024,0.0,2.0844,0.0
mp-675237,Na3Gd1I6,10,4,5,393.1363918399363,4.171643768665064,39.31363918399363,0.58479995,-4.282068512999999,-1.5575324864137912,0.0,1.549599999999999,0.0
mp-18411,Na12Ge4Se12,28,4,14,715.7091982213606,3.512579039199811,25.56104279362001,0.85263358,-3.794290547857142,-1.060587030167025,1.0,1.8880999999999992,0.0
mp-1191727,Na6H4Os2O12,24,4,11,295.7832148208671,4.010800930740919,12.32430061753613,1.95003442,-5.989257745416666,-1.678372022636494,0.0,0.4493,1.0
mp-863011,Na12H28Os4,44,1,136,471.306488889304,3.752349295877092,10.711511111120544,0.39462664,-8.346204636136363,-0.358608511704544,0.0,2.6014,1.0
mp-698032,Na12H28Ru4,44,1,136,468.0724518842931,2.513055220999502,10.63801027009757,0.07725805,-5.820472583181819,-0.338394054659091,0.0,2.5681000000000003,0.0
mp-22804,Na6In4As6O24,40,4,15,522.5114947209181,4.546839896409803,13.062787368022953,1.5159007,-6.12178471749999,-1.975314243498552,0.0,2.2648,1.0
mp-21622,Na24In8As16,48,4,14,1135.6733487797924,3.902576336219647,23.65986143291234,2.776137089999999,-11.047813283541666,-0.6001142727083331,0.0,0.981399999999999,0.0
mp-580161,Na36In12Bi24,72,4,14,2457.8193113289226,4.878599024990211,34.136379324012815,2.63105752,-2.697192112222222,-0.269791329022989,1.0,0.1083,0.0
mp-21577,Na24In8P16,48,4,14,1049.557211400588,3.110281431920598,21.865775237512253,3.20385667,-9.075738115625,-0.529857329950396,0.0,1.3087,0.0
mp-21547,Na24In8Sb16,48,4,14,1369.0282378319437,4.146359927451519,28.521421621498828,3.37118003,-14.639623226041666,-0.525662634374998,0.0,0.6322000000000001,0.0
mp-1210682,Na12Li12Rh8F48,80,0,230,1018.2971283419844,3.4152386578937213,12.728714104274804,0.40679752,-5.010047990749999,-2.637709231956896,1.0,1.9933,0.0
mp-985626,Na3Mn2Sb1O6,12,4,12,146.57642015737525,4.493033589509303,12.214701679781273,4.15002126,-6.712026325,-2.0315296425,0.0,0.8500000000000001,1.0
mp-1211859,Na6Mn10Ge12O40,68,5,2,853.0945838235971,4.28028037251728,12.545508585641134,2.89247729,-7.320201767352941,-2.12806570775862,0.0,0.3931,1.0
mp-1210340,Na12Mn4O16,32,3,62,467.2848702660781,2.670949006508858,14.602652195814942,1.92407363,-5.9115820475,-1.789204341508619,0.0,1.846099999999999,1.0
mp-1029845,Na12Mo8N20,40,1,80,641.3065653612646,3.427027624924468,16.032664134031613,1.59521523,-7.2721184655,-0.5313333374137941,0.0,1.8184,0.0
mp-1106352,Na6Mo2Cl12,20,6,163,493.0324166528505,2.543706564125692,24.651620832642525,1.3172489,-9.039825832,-1.671910378499998,0.0,1.7232,0.0