material_id,composition,nsites,crystal_system,space_group,volume,density,density_atomic,efermi,energy_per_atom,formation_energy_per_atom,is_gap_direct,band_gap,is_oxide
mp-1212840,Er8Os2Br8,18,4,15,502.3311484880533,7.793980611409755,27.907286027114072,4.69302514,-5.530251932222222,-1.525137619999998,0.0,0.7195,1.0
mp-1192836,Er8Zn10Ge12,30,3,36,602.1099582221811,7.898094785894687,20.07033194073937,4.66739076,-4.022028734333333,-0.534844706333332,1.0,0.0208,0.0
mp-1213202,Er5Re2O12,19,4,12,242.113193679208,9.606746432161426,12.742799667326736,4.12033971,-9.015373895789477,-3.377986815526317,0.0,0.0117,1.0
mp-29401,Er20C8Br36,64,4,14,1824.357582221959,5.750500756196676,28.50558722221811,1.57970867,-5.387089984843751,-1.88531224421875,1.0,0.922099999999999,0.0
mp-1198488,Er12Al86Mo8,106,2,193,1860.251670709407,4.548047788271321,17.549544063296292,7.40101799,-4.686396565471698,-0.311893282641508,1.0,0.0155,0.0
mp-1189721,Er6Co1Br10,17,5,2,514.1261481249934,6.012412794231784,30.242714595587845,2.711562589999999,-4.855938755882351,-1.8612802305882328,0.0,0.0176,0.0
mp-1196832,Er6H40N8O49,103,5,2,1021.0496650618084,3.154863931950129,9.913103544289402,2.35049898,-6.157185591747574,-1.5710760615048551,0.0,2.9432,1.0
mp-1188388,Er6Ni1I10,17,5,2,621.9560273343593,6.224236823136085,36.58564866672702,4.04040921,-4.259300231764705,-1.4106781323529392,0.0,0.6135,0.0
mp-679936,Er14C4I24N2,44,5,2,1558.6713537788778,5.82045191604804,35.42434894951995,2.570107209999999,-5.035703453409091,-1.533076554318181,0.0,1.2187,0.0
mp-1105583,Er7Co1I12,20,6,148,736.0143163744732,6.210204691736808,36.80071581872366,3.98029804,-4.294275478500003,-1.424495490000002,0.0,0.439899999999999,0.0
mp-1105808,Er7Ir1I12,20,6,148,753.02035906694,6.363868477367174,37.651017953347,4.04106944,-4.442755431500001,-1.48772457,0.0,0.3853,0.0
mp-862995,Er16Ga6Co2,24,2,186,573.7880260824413,9.296516752962347,23.90783442010172,3.50211993,-4.811963163333331,-0.415341891041663,1.0,0.010299999999999,0.0
mp-1190234,Er16In6Co2,24,2,186,634.7468968666734,9.11154049105873,26.447787369444725,4.42636963,-4.67579693375,-0.346406231249998,1.0,0.002099999999999,0.0
mp-1225972,Er8Mn3Mo5O28,44,4,5,553.9732279939727,7.285650516835797,12.590300636226653,3.83851505,-8.825790371363636,-2.989450483949843,0.0,0.666,1.0
mp-13384,Er2Ag2P4Se12,20,6,163,583.9667051475521,4.611299664482155,29.198335257377607,1.57360348,-4.7548681435,-0.833160903001487,0.0,1.7618,0.0
mp-2755672,Er8Ag8S16,32,3,19,706.3657310872175,6.38026234209565,22.073929096475545,4.56895733,-19.373920299375,-1.536092680364582,0.0,1.7885,0.0
mp-4044,Er4Ag4Se8,16,3,19,389.7629411683988,7.379786196461983,24.36018382302493,2.88274168,-5.033074440625,-1.432454579713541,1.0,1.2801,0.0
mp-12902,Er2Ag2Te4,8,1,113,233.96168426141253,7.527976527102085,29.24521053267657,4.36853221,-4.532410681249999,-1.108093612499997,0.0,0.8936000000000001,0.0
mp-2053129,Er4As4S4,12,3,62,243.08780726381408,7.493515002156125,20.25731727198451,5.59144,-20.6473691575,-1.7580474120486111,0.0,0.4672,0.0
mp-1213048,Er4As4Se4,12,3,62,261.55561181635284,8.155305993522916,21.79630098469607,4.36690315,-22.60557604,-1.624067244965274,0.0,0.4869,0.0
mp-1190816,Er4B16Mo4,24,3,55,251.6787994879137,8.087460274309526,10.486616645329738,6.48256778,-7.65972474375,-0.6379020765277761,0.0,0.5880999999999991,0.0
mp-1192093,Er4B16W4,24,3,55,250.54496314730824,10.454362345416463,10.439373464471176,6.25470356,-7.978958057500009,-0.605055370277785,0.0,0.5911000000000001,0.0
mp-546621,Er1Bi2Br1O4,8,1,123,141.1609268058397,8.576980871338387,17.645115850729958,3.71168487,-6.645790428750001,-2.423718180625001,0.0,1.357,1.0
mp-549709,Er1Bi2Cl1O4,8,1,123,131.9521389723271,8.616169133742371,16.494017371540888,3.75316474,-6.724106044999999,-2.475584263749999,0.0,1.3769,1.0
mp-551250,Er1Bi2I1O4,8,1,123,150.22841050683854,8.578807971338948,18.77855131335481,4.32241971,-6.540157055,-2.332201546875,0.0,1.375,1.0
mp-562779,Er4Co4O12,20,3,62,201.45109439388892,9.040484271457936,10.072554719694448,3.36181437,-7.962130946499943,-2.653127237499942,0.0,1.4471,1.0
mp-985700,Er4Cr4B16,24,3,55,231.20375700482657,7.541227117485645,9.633489875201109,6.50491949,-13.790462590833334,-0.726430199722223,0.0,0.161099999999999,0.0
mp-728095,Er8Cr8H8O40,64,4,14,781.8679979026957,5.101562185906772,12.21668746722962,2.6072162800000003,-7.68358256046875,-2.3891153425,0.0,2.456,1.0
mp-19063,Er4Cr4O12,20,3,62,214.9255426707957,8.25931696741174,10.746277133539785,4.85748923,-9.049514932,-3.236585073,0.0,0.2571,1.0
mp-19240,Er2Cr2O8,12,1,141,153.5857961193164,6.124943659562459,12.798816343276366,1.84986842,-8.453124033333333,-2.784355649999998,0.0,0.300399999999999,1.0
mp-1105511,Er2Cr2Te2O12,18,6,163,226.1562337662692,6.503223052541735,12.56423520923718,3.24918979,-7.776172398888889,-2.5481903762962963,0.0,2.6495,1.0
mp-1225628,Er2Cu2Pb2S6,12,3,36,260.2578767330662,6.816777117470562,21.688156394422183,4.84902579,-5.484103148333333,-1.351661272916665,0.0,1.5553,0.0
mp-567983,Er4Cu4Pb4Se12,24,3,62,583.4273134921116,7.683376366146034,24.309471395504648,4.46489413,-5.046268382916667,-1.235050552421874,0.0,1.133099999999998,0.0
mp-12454,Er4Cu4S8,16,3,62,321.6734233765556,6.090041066704614,20.104588961034725,4.25649822,-16.79848232875,-1.5879249959895851,0.0,1.629299999999999,0.0
mp-1213221,Er6Ge6Rh12,24,2,194,405.7727630651521,10.943842486373835,16.907198461048,5.4335549,-6.850549922916666,-0.870709321666664,0.0,0.015699999999999,0.0
mp-1206742,Er1H1Se1,3,2,187,48.03316835320193,8.54680226728387,16.011056117733975,3.9509184,-18.871318506666665,-1.64061590704861,0.0,1.4817,0.0
mp-866003,Er2I6,8,2,194,417.23909072830384,4.361669912738242,52.15488634103798,0.1847694,-3.912359278749999,-1.627420114999998,0.0,2.0376,0.0
mp-19345,Er4Mn8O20,32,3,55,342.69483342028064,6.9219810694281865,10.70921354438377,3.03427846,-8.611152392187499,-2.657208089795258,0.0,1.0779,1.0
mp-1194158,Er4Mo4Br4O16,28,5,2,500.154534263476,5.40638066058349,17.862661937981287,1.39229779,-7.856387224285714,-2.593221584999999,0.0,1.9042,1.0
mp-559004,Er2Mo2Cl2O8,14,4,12,245.1233115444508,4.913395013249574,17.508807967460772,0.58351703,-7.979091720714286,-2.685698043571428,0.0,2.7062,1.0
mp-19830,Er1N1,2,0,225,27.95322407670807,10.76794488745224,13.976612038354036,3.92020906,-23.626701835,-2.099608916041667,0.0,0.124299999999999,0.0
mp-1206712,Er1Ni1Bi1,3,0,216,65.3743965143201,11.047488684465687,21.791465504773367,6.05514116,-5.40735823,-0.661394963333332,0.0,0.169999999999999,0.0
mp-21272,Er1Ni1Sb1,3,0,216,61.56775783454507,9.378123297796591,20.522585944848355,6.64537391,-5.793094280000001,-0.9674753699999992,0.0,0.2739,0.0
mp-1191596,Er8P8S8,24,3,62,463.4303923363738,6.601525270254202,19.309599680682243,5.49860787,-18.753476684583333,-1.765973164290675,0.0,0.232599999999999,0.0
mp-5036,Er8P8S32,48,1,142,1076.4294552929637,4.029276483264438,22.425613651936743,3.12338455,-13.697489028958332,-1.186237727718252,0.0,2.1659,0.0
mp-1225447,Er1Pa1O4,6,1,123,75.70387092967823,10.14023079412251,12.617311821613038,5.32135424,-9.844890268333335,-4.194246933333335,0.0,2.4341,1.0
mp-18341,Er4Pt4F28,36,4,14,489.5674831340008,6.720363344068253,13.599096753722243,-1.06852365,-14.738304102777777,-2.816598800925924,0.0,2.2785,0.0
mp-1213022,Er4Rh4O12,20,3,62,223.42346421208663,9.458659049049958,11.171173210604334,4.45490236,-7.951800668999999,-2.596618729999998,1.0,0.9642,1.0
mp-27616,Er2S2Cl2,6,3,59,163.85698696806912,4.758495657132029,27.30949782801152,0.74650049,-6.0725660333333344,-2.554358974166665,1.0,2.9329,0.0
mp-10932,Er2S2F2,6,1,129,93.6867085869724,7.739259604601134,15.614451431162063,4.26637536,-18.35225866,-3.323437927048608,1.0,1.324399999999999,0.0
mp-1213308,Er4Sb4O16,24,5,2,293.527712168419,7.988313622966674,12.230321340350793,3.62809409,-7.627126643333335,-2.879032631666668,0.0,2.382399999999999,1.0
mp-11836,Er1Sb1Pd1,3,0,216,69.41080490394998,9.46022609687198,23.13693496798333,5.99460815,-28.76543175666667,-1.234696921111113,0.0,0.209299999999999,0.0
mp-28458,Er2Se2I2,6,3,59,223.2705634902673,5.55009212960903,37.21176058171122,0.867853299999999,-5.16504742666667,-1.969166459114586,1.0,2.309,0.0
mp-5640,Er1Sn1Au1,3,0,216,73.22843623210494,10.951119814075923,24.40947874403498,5.58556717,-4.794692280000002,-0.8443013916666671,0.0,0.006099999999999,0.0
mp-1212634,Er4Te4As4,12,3,62,297.1027524111241,8.266973326737814,24.758562700927005,5.74381313,-25.99635249083333,-1.312955669444444,0.0,0.3619,0.0
mp-1105213,Er2Tl2P4Se12,20,4,4,537.0494259103197,5.610991305951909,26.852471295515983,2.97262629,-4.7713762685,-0.8968155841681551,0.0,1.4836,0.0
mp-1213014,Er2Tl2W4O16,24,4,15,316.2429403008877,9.108279796067926,13.176789179203654,5.24853909,-8.544450544999982,-2.5078555927777613,0.0,2.9077,1.0
mp-1195632,Er4Tl8P8Se28,48,4,15,1406.95068642541,5.621213217521875,29.31147263386271,2.71448818,-4.567971300833332,-0.8502220976965531,0.0,1.0722,0.0
mp-4123,Er1Tl1S2,4,6,166,102.41473049192884,7.065555167859005,25.603682622982213,3.959914399999999,-5.538045454999992,-1.734067939583325,0.0,1.4109,0.0
mp-570117,Er1Tl1Se2,4,6,166,114.22245775165648,7.698651426853895,28.55561443791412,3.70014918,-5.089725729999991,-1.6069722595052,0.0,1.2151,0.0
mp-1007907,Er1Tl1Te2,4,6,166,137.68473795779894,7.559996432331061,34.421184489449736,4.53650345,-4.550207077499991,-1.243756399166658,0.0,0.8205999999999991,0.0
mp-19205,Er4V4O12,20,3,62,220.50361904722976,8.018613803040648,11.025180952361488,4.62011848,-9.0096174565,-3.3105158775,0.0,1.5838,1.0
mp-18960,Er2V2O8,12,1,141,156.068355947956,6.005073440083617,13.005696328996336,0.64265593,-8.786572225833334,-3.212660742500001,0.0,2.9661,1.0
mp-1225396,Er1Zn1Cu1P2,5,6,156,88.45414957378047,6.723723031884604,17.690829914756094,5.75960205,-4.915886540000001,-0.764363311857142,0.0,0.1001,0.0
mp-30022,Eu2Al4Cl16,22,4,13,639.8169407087177,2.541097733005481,29.082588214032626,2.06909319,-11.195894049090908,-1.9954767259090904,0.0,1.6997,0.0
mp-1103889,Eu2Al4S8,14,3,66,323.2496807008736,3.433449314104583,23.089262907205256,4.96528757,-13.673541198571428,-1.655673240892856,0.0,1.1797,0.0
mp-1103552,Eu2Al4Se8,14,3,66,371.3168374959107,4.666713317926713,26.522631249707903,4.01027324,-17.054269740714286,-1.4497954123214272,0.0,1.002199999999999,0.0
mp-2646920,Eu4B8H32,44,3,60,428.2098042936643,2.817647997450122,9.732041006674187,1.2615907,-5.089028444090909,-0.470098719848484,1.0,1.572,0.0
mp-540879,Eu4B8O16,28,3,60,341.56146241249064,4.620156461410449,12.198623657588952,5.0099785,-9.27629108392857,-3.070756872976189,1.0,0.290299999999999,1.0
mp-1193960,Eu4Dy8S16,28,3,62,671.5755740097359,5.985912144144472,23.98484192891914,4.43441158,-21.66639240535714,-2.434323049107141,1.0,0.1116,0.0
mp-645690,Eu4Dy8Se16,28,3,62,763.6795464719025,6.8954682378949,27.27426951685366,3.60622923,-25.06948843214285,-2.250812705178572,1.0,0.1657,0.0
mp-1193984,Eu4Er8Se16,28,3,62,750.4348686916603,7.101413223590796,26.80124531041644,3.60910211,-25.614363161071427,-2.240364022202381,1.0,0.1678,0.0
mp-1225526,Eu4Ga8As8,20,4,10,475.0405611261013,6.169731486720438,23.752028056305065,3.72263791,-5.7778321465000015,-0.640922341500002,0.0,0.023899999999999,0.0
mp-1181942,Eu8Ga16S32,56,3,70,1294.8930490504672,4.305396067056109,23.123090161615487,4.68231538,-14.701946187678567,-1.338170338571428,0.0,0.2343,0.0
mp-1193885,Eu4Ho8Se16,28,3,62,765.3697453227081,6.922423076480214,27.33463376152529,3.867748299999999,-6.972624085357142,-2.191607405982142,1.0,0.1142,0.0
mp-645692,Eu4Lu8Se16,28,3,62,730.9041712302537,7.431266361267387,26.10372040108049,3.7263973,-26.786420218928573,-2.225436789583333,1.0,0.1428,0.0
mp-21386,Eu3P6Ir6,15,6,154,274.7676546630356,10.848177735611545,18.317843644202373,7.03132487,-33.33092766666667,-1.082179218857144,0.0,0.336099999999999,0.0
mp-2929310,Eu1Re2O8,11,6,164,238.5382198042432,4.541373644407424,21.68529270947665,0.780971099999999,-9.32280328,-2.525709791818181,0.0,0.2764,1.0
mp-1193787,Eu4Y8Se16,28,3,62,767.4996905678773,5.587338236277724,27.41070323456705,3.90520032,-21.740310127500003,-2.2554064762499992,1.0,0.124399999999999,0.0
mp-1212596,Eu8B8O20,36,4,14,483.9358352461793,5.56624732284896,13.442662090171646,4.858322699999999,-9.662052044444412,-3.142628444814783,0.0,0.0819,1.0
mp-558834,Eu8B20Br4O36,68,3,34,874.7910363468974,4.418139138556761,12.864574063924962,4.96540547,-8.881024284411765,-2.99033144534314,1.0,0.799199999999999,1.0
mp-553918,Eu8B20Cl4O36,68,3,34,861.58780549953,4.143162199789351,12.670408904404852,5.12919905,-8.929265617941176,-3.026125939754903,0.0,0.759,1.0
mp-1192731,Eu8B4I4N8,24,4,11,559.1432363918186,5.5791327142913,23.297634849659108,4.47893743,-9.0423112475,-1.466280629861112,0.0,0.189499999999999,0.0
mp-582618,Eu2C1N2Cl2,7,4,12,146.5895291607636,4.699435806154689,20.94136130868052,4.25687435,-8.95708898,-1.788727492500002,0.0,0.9358999999999992,0.0
mp-1079126,Eu2Fe1H6,9,0,225,96.04771686958574,6.324559124226007,10.671968541065082,2.89776525,-6.114011753333323,-0.6232069008333241,0.0,0.072099999999999,0.0
mp-1018691,Eu2H3Br1,6,6,164,101.71846114519178,6.315364930016376,16.953076857531965,4.16616252,-6.527949771666665,-1.128171491458333,0.0,0.091,0.0
mp-1213558,Eu4Hf4Mo14O56,78,4,15,1390.4742219536708,4.252566409181069,17.826592589149627,-0.64211867,-9.003247751923077,-2.465989782692307,1.0,0.3594,1.0
mp-558258,Eu4I4O2,10,3,72,308.3122994144814,6.180172560792437,30.83122994144814,4.75060221,-8.109345201999997,-2.394903188999999,0.0,0.048,1.0
mp-982662,Eu4Mg2Si4O14,24,1,113,339.3390172325674,4.858216819715106,14.139125718023642,5.70996625,-8.982979062916666,-3.341890984583333,0.0,0.0118,1.0
mp-555322,Eu8Si4Cl8O12,32,1,87,608.0856271061555,4.925401445416529,19.00267584706736,5.07113269,-8.724826341875,-3.1570140675,0.0,0.642799999999999,1.0
mp-554546,Eu8Si4O16,28,4,14,387.5074227678318,6.787915417570968,13.839550813136851,6.11997108,-9.892466269285718,-3.350554000714289,0.0,0.288899999999999,1.0
mp-22504,Eu4Si2S8,14,4,11,332.0144346289989,4.60402951410691,23.715316759214208,5.02947862,-18.61798827785714,-1.767198798749997,0.0,0.2894,0.0
mp-1205947,Eu2Ta1Al1O6,10,0,225,120.62449057429902,8.367828189463468,12.062449057429902,6.56622277,-10.03051978,-3.442870456733334,1.0,0.3394,1.0
mp-1189098,Eu6Al4As8,18,4,15,464.49520634377,5.788112473775599,25.805289241320555,4.28346221,-7.290614972777778,-0.953284135555557,1.0,0.0059,0.0
mp-1205409,Eu6Al4P8,18,4,15,425.6569545778577,4.944671196085206,23.64760858765876,4.80448558,-19.529472439444444,-1.192233544656084,1.0,0.0266,0.0
mp-559134,Eu6As4S16,26,6,167,672.6014677923381,4.257523997616547,25.86928722278224,3.79735293,-6.973975003076927,-1.334632130000004,1.0,0.2486,0.0
mp-505346,Eu6B4O12,22,6,167,291.6744808838655,6.530131956800016,13.257930949266614,5.11797073,-9.903198929090909,-3.184027536666667,1.0,0.4588,1.0
mp-1200526,Eu12Ge8As16,36,4,14,948.4059540545084,6.309157213868751,26.344609834847457,3.62993108,-7.3386814775,-0.8063613013888911,1.0,0.012199999999999,0.0
mp-2745640,Eu6Nb2O14,22,3,63,307.6366599284147,7.133574724983958,13.983484542200667,2.24516714,-19.629441553636365,-3.076726518636364,0.0,0.150999999999999,1.0
mp-1199220,Eu6Rh8Pb26,40,0,223,1071.0874469914472,11.041804166832724,26.77718617478618,6.50486892,-5.7094810305,-0.280182073749998,0.0,0.028599999999999,0.0
mp-1213142,Eu6Sn26Ir8,40,0,223,944.0690975923914,9.737328639778534,23.601727439809785,7.71065797,-32.835044531250006,-0.5000219770000051,0.0,0.1086,0.0
mp-2748966,Eu6Ta2O14,22,3,63,305.96936842886885,8.128074437575968,13.907698564948584,2.30390658,-21.91976246136364,-3.198160329757575,1.0,0.1545,1.0
mp-559031,Eu8Br12O2,22,2,186,626.7306919350134,5.846334218669394,28.48775872431879,3.73225328,-7.651527641818185,-2.567701471363641,0.0,0.8538000000000001,1.0
mp-1204426,Eu32C16N32F40,120,1,114,1708.2526766734015,6.088231651036308,14.235438972278349,3.84289419,-9.333652967916668,-2.498176201250002,1.0,0.162399999999999,0.0
mp-28546,Eu8Cl12O2,22,2,186,548.6672406051231,5.063771663299183,24.939420027505594,4.40198733,-8.080058490454546,-2.880816175454547,0.0,0.9888,1.0
mp-1191507,Eu8I12O2,22,2,186,760.020280502254,6.053299638415513,34.546376386466086,4.6669547300000005,-7.133935396818182,-2.111709546363637,0.0,1.200199999999999,1.0
mp-1202692,Eu10B6Cl2O18,36,3,20,536.8201978659855,6.011498128248421,14.911672162944042,4.83784603,-9.701192359166669,-3.153474207361113,0.0,0.2876,1.0
mp-647532,Eu10P6Cl2O24,42,2,176,620.0408243113244,5.78572502070991,14.762876769317248,5.72651372,-9.388286068333334,-3.249664401139456,1.0,0.6537000000000001,1.0
mp-1212781,Eu10P6O24F2,42,2,176,615.1909609483974,5.742507503703151,14.6474038321047,6.04587366,-9.483376064285713,-3.341644417329932,0.0,0.390699999999999,1.0
mp-553893,Eu12Mo20O78,110,4,15,1799.4145306804205,4.605177498677158,16.35831391527655,0.36630803,-8.945132969363636,-2.342302936909091,0.0,0.098199999999999,1.0
mp-1190780,Eu7Cl2F12,21,2,174,335.33138638895565,6.747678489149327,15.968161256616936,4.87061794,-19.132219373809523,-3.919676888095239,0.0,0.5699000000000001,0.0
mp-1212749,Eu2Al24O38,64,2,186,589.0453228990472,4.396177480920452,9.203833170297612,10.08397913,-8.09191259187503,-3.42796631156253,1.0,0.169599999999999,1.0
mp-1019732,Eu4Al8O16,28,4,4,380.8417501999522,4.707682088895626,13.60149107856972,5.74942146,-8.780427923214287,-3.413126838214287,0.0,0.099199999999999,1.0
mp-1202507,Eu32Al32F160,224,1,88,2980.502644148394,4.883836754074936,13.305815375662474,5.34961104,-7.343783384196429,-3.971933438482144,1.0,0.7047999999999991,0.0
mp-8109,Eu2B8O14,24,3,31,201.52803667108023,5.062560224715145,8.397001527961677,7.50635829,-8.952668805416666,-2.982551635972221,1.0,2.1466,1.0
mp-23311,Eu10Br20,30,1,85,949.5815900272148,5.451975810284797,31.652719667573823,3.20478735,-6.913731128333336,-2.393062800000004,1.0,1.045799999999999,0.0
mp-1212716,Eu4C4N8,16,3,62,257.90940287131104,4.944429893955914,16.11933767945694,3.99593022,-10.029979511875,-0.981646287500002,0.0,0.4575,0.0
mp-554518,Eu4C4O12,20,3,62,255.5541915816184,5.509426855134597,12.77770957908092,4.92373906,-9.494560945,-2.622428860500001,0.0,0.429299999999999,1.0
mp-22887,Eu4Cl8,12,3,62,303.88117919445483,4.871434851663826,25.3234315995379,4.34222328,-19.615381216666663,-2.6734610466666693,0.0,1.214399999999999,0.0
mp-556382,Eu2Cl2F2,6,1,129,116.37656244476132,5.890547611324809,19.39609374079356,5.72249769,-19.394672648333334,-3.461556127500001,0.0,0.115499999999999,0.0
mp-21356,Eu2Cu2Se2F2,8,1,129,144.45588999323593,7.206719361636187,18.05698624915449,5.20520466,-7.15091539125,-2.201644781835938,0.0,0.030499999999999,0.0
mp-542765,Eu4Dy4Cu4S12,24,3,62,511.1959238438944,6.161519615852921,21.29983016016227,5.24872882,-7.160377051249999,-1.923581581944443,0.0,0.0621,0.0
mp-1070860,Eu2H2Cl2,6,1,129,111.93436308492583,5.590543696654979,18.65572718082097,4.41358876,-6.946298621666668,-1.7690249037500032,0.0,0.307999999999999,0.0
mp-1212722,Eu2Hf2F14,18,4,4,282.9708145113531,5.439182221385518,15.720600806186283,-2.76671174,-15.723647722222225,-3.995370638333335,0.0,0.1365,0.0
mp-753781,Eu1Hf1O3,5,0,221,68.80440725408809,9.133639660900895,13.760881450817616,5.45004823,-10.737502918,-3.719666126000001,1.0,0.479599999999999,1.0
mp-1190059,Eu4Hf4S12,20,3,62,450.9171333105742,6.284678757042116,22.54585666552871,4.62230329,-23.6405126545,-2.0850535841875,1.0,0.1287,0.0
mp-1102093,Eu4I8,12,3,62,509.22795200753416,5.292732391321431,42.43566266729452,3.44438261,-6.320225555833332,-1.8748465075,1.0,1.3259,0.0
mp-1095411,Eu1In2Ge4Ir4,11,1,121,217.12058435164744,11.020987702340388,19.73823494105886,6.93609625,-6.819938021818182,-0.487910063484849,0.0,0.1271,0.0
mp-1212752,Eu2Lu2Cu2S6,12,3,63,246.1904508568313,6.565143902273583,20.515870904735944,5.31574416,-7.135809415,-1.91512862486111,1.0,0.1897,0.0
mp-1019726,Eu8Mg24Si8N32,72,1,88,916.7899774523734,4.47729261888599,12.733194131282964,6.65835525,-7.125619919583333,-1.1302920340277791,0.0,0.207599999999999,0.0
mp-643756,Eu2Mg2H8,12,3,36,141.08352730658189,4.244243979909383,11.756960608881824,3.0116933,-4.744876618333333,-0.495002004166667,0.0,0.170599999999999,0.0