material_id,composition,nsites,crystal_system,space_group,volume,density,density_atomic,efermi,energy_per_atom,formation_energy_per_atom,is_gap_direct,band_gap,is_oxide
mp-9562,Li2Be2As2,6,1,129,86.07705830986724,3.506186866575579,14.346176384977872,3.86092244,-3.9178650716666654,-0.478378983611111,0.0,1.0077,0.0
mp-29463,Li4Be4N4,12,4,14,100.42691398482884,1.981522781800967,8.368909498735738,1.83869774,-5.656103485833332,-0.9938989936111112,0.0,2.6858,0.0
mp-9915,Li2Be2P2,6,1,129,77.87865037435365,2.001165233695722,12.979775062392276,4.38722932,-4.2689903550000015,-0.581053935992063,0.0,1.1585,0.0
mp-1100398,Li1Be1Sb1,3,0,216,51.423844088809965,4.446927738460478,17.141281362936656,5.28458485,-3.58507545,-0.325963126111111,0.0,1.010499999999999,0.0
mp-559893,Li2Bi2Pd4O8,16,1,129,217.98176527125847,7.507468057252558,13.623860329453658,3.72913053,-5.87756275,-1.383742147916666,0.0,0.445999999999999,1.0
mp-768150,Li2Bi6Br4O8,20,3,63,398.55762389996136,7.146891758887493,19.92788119499807,2.56678132,-5.389419654,-1.724943365333334,0.0,2.671399999999999,1.0
mp-754206,Li2Bi6Cl4O8,20,3,63,376.1190099246799,6.788270845459157,18.805950496234,2.66070834,-5.5145565775000005,-1.807761035833334,0.0,2.8283,1.0
mp-775430,Li2Bi6I4O8,20,3,63,432.24426748835975,7.31214477959913,21.612213374417987,3.96332914,-5.222548791,-1.5806592863333342,0.0,1.905899999999999,1.0
mp-27419,Li1Bi1F6,8,6,148,103.53876603093516,5.291075848354186,12.942345753866896,-2.72308001,-12.26810045,-2.312456967708334,0.0,2.5394,0.0
mp-1540429,Li4Bi4O8,16,4,15,228.97144425408607,7.191834402589505,14.31071526588038,4.83961727,-5.765784393124999,-1.842064596458333,0.0,2.521699999999999,1.0
mp-29077,Li8Bi8O24,40,3,56,473.461939007118,7.405010120314769,11.836548475177947,2.64023615,-5.7638669717500015,-1.6352989334166672,0.0,0.144299999999999,1.0
mp-1222404,Li1Bi1S2,4,6,166,85.40092773823045,5.445330661763359,21.350231934557613,3.88222949,-4.504695224999999,-0.985776147083332,1.0,1.4793,0.0
mp-569282,Li4Ca40Mg4Sb36,84,1,136,2459.8276581780924,4.125624286067264,29.283662597358244,4.69241946,-3.942000488095238,-1.048838448015872,1.0,1.213099999999999,0.0
mp-1211639,Li4Ca44Sb36,84,1,136,2474.810566593038,4.142980313448558,29.462030554679025,4.29969252,-3.998638505357143,-1.087613138373014,0.0,0.725699999999999,0.0
mp-1222411,Li2Ca4Cu2N4,12,1,136,186.46158851929184,3.182059469234032,15.538465709940986,3.97277782,-5.207935544166667,-0.7586214130555551,1.0,1.039699999999999,0.0
mp-1104693,Li2Ca4H2C6,14,1,127,175.50544806164618,2.349037101796205,12.536103432974729,3.79123141,-5.560276921428572,-0.27437898672619,0.0,1.2992,0.0
mp-570850,Li4Ca8In4Ge8,24,3,62,550.3641646976188,4.190177327733137,22.931840195734114,4.12663159,-3.54864019375,-0.561081513749999,1.0,0.148499999999999,0.0
mp-1192528,Li4Ca12As8H4,28,3,62,584.1222200119627,3.161484026384381,20.861507857570096,2.72117019,-3.992985308571428,-1.041394735654762,0.0,1.441699999999999,0.0
mp-1191787,Li2Ca6Os2O12,22,6,167,273.4101436333968,5.021534064278087,12.427733801518036,3.99836014,-7.093260876363636,-2.653183061212121,1.0,0.216899999999999,1.0
mp-6342,Li2Ca6Ru2O12,22,6,167,271.6122806215833,3.964588865252454,12.346012755526516,3.3239542,-6.894107095454545,-2.631571543030302,1.0,0.3111,1.0
mp-1020056,Li4Ca12Si8N20,44,4,15,553.8779100915114,3.03855092076923,12.588134320261622,4.67694152,-6.7967638706818185,-1.299695935075759,0.0,2.4382,0.0
mp-6799,Li1Ca4B3N6,14,0,229,181.55507850194388,2.5950165823255693,12.968219892995991,2.86373228,-7.031100992857143,-1.3168749807738092,0.0,2.1934,0.0
mp-1202682,Li4Ca28Ge12H12,56,3,62,1183.3527417614723,2.853821044152027,21.131298960026296,3.35145437,-3.469240721964286,-0.611904657113094,1.0,0.7149000000000001,0.0
mp-1020031,Li4Ca4Al4N8,20,4,14,232.8578608354888,2.909897561975997,11.64289304177444,4.00270767,-6.0490041125,-1.181673299166667,0.0,2.7797,0.0
mp-1095289,Li4Ca4As4,12,3,62,245.8048065658812,3.29508821139139,20.483733880490096,3.07645002,-9.280269748333334,-1.236092714722222,1.0,1.073299999999999,0.0
mp-569501,Li4Ca4Bi4,12,3,62,315.4110941353438,5.391021592204993,26.284257844611982,3.84433057,-23.592672861666667,-0.95024824222222,0.0,0.5790000000000001,0.0
mp-570948,Li4Ca4Ga4N8,20,4,14,240.99843740189644,3.989602578218511,12.049921870094822,3.29506073,-5.564259324,-0.840424472166667,1.0,2.1319,0.0
mp-31468,Li4Ca4N4,12,3,62,170.87791425417905,2.372116007124854,14.239826187848251,2.12837861,-6.982460225833333,-0.7978766309722221,1.0,1.378499999999999,0.0
mp-1211088,Li4Ca4P4,12,3,62,229.14728270240133,2.260729897133163,19.095606891866776,4.6650317900000005,-7.3324023525,-1.190043544047618,1.0,1.398699999999999,0.0
mp-16264,Li4Ca4Sb4,12,3,62,295.65702334902124,3.79174653044966,24.638085279085104,4.15798441,-3.687220527499999,-1.006045865277776,1.0,0.6443000000000001,0.0
mp-1211094,Li2Ca2V2F12,18,6,163,232.55247626859585,3.026867631603956,12.919582014921987,0.00859792,-6.286765812777777,-3.566594360925926,0.0,2.6309,0.0
mp-6126,Li3Cd3B3O9,18,2,174,204.26583499690264,4.344979659816659,11.348101944272369,0.91058458,-6.36936833,-2.30400035625,0.0,2.115599999999999,1.0
mp-1205078,Li2Ce2P8O24,36,4,15,480.4740468137547,3.199914796160398,13.346501300382076,4.82956872,-7.846590586111112,-2.908629536216931,0.0,0.3603,1.0
mp-1195868,Li8Ce8F40,56,1,88,703.9200614203706,4.567926037386346,12.570001096792334,-1.30940816,-6.300901354285713,-3.813024981190474,1.0,2.2896,0.0
mp-26997,Li4Co4P16O48,72,3,60,992.6465929201848,2.55450747957184,13.786758235002567,-0.35448436,-7.433135039583334,-2.428703609133598,0.0,1.3617,1.0
mp-554689,Li2Co2F8,12,4,14,134.40899724309304,3.505376008701767,11.200749770257753,-1.90593437,-5.309159549166667,-2.526201368055556,1.0,1.9285,0.0
mp-22526,Li1Co1O2,4,6,166,31.73369686772904,5.121430775621985,7.933424216932258,3.95624374,-6.48022517,-1.745659770833334,0.0,0.6623,1.0
mp-773085,Li4Co4Sb4O16,28,3,74,331.781126804702,5.037591258072259,11.849325957310784,3.74732515,-6.602853794642857,-1.893827387976191,1.0,1.358699999999999,1.0
mp-674219,Li2Cr6O16,24,3,58,276.25451018557635,3.497437905043076,11.51060459106568,0.30859614,-7.779140744166667,-1.908161301111111,0.0,1.9279,1.0
mp-26967,Li4Cr16P12O48,80,3,62,954.7788588393104,3.477257527638464,11.934735735491378,3.16295477,-8.305809044125,-2.498655774988095,0.0,2.642899999999999,1.0
mp-1211167,Li1Cr4Ga1S8,14,0,216,256.74817266944984,3.500049330307628,18.33915519067499,4.17340803,-6.568648905714285,-1.093214240773808,0.0,0.376199999999999,0.0
mp-1211182,Li1Cr4In1S8,14,0,216,267.4081163280994,3.640552472323911,19.100579737721382,4.40452044,-6.528485012142857,-1.07225908142857,0.0,0.3692,0.0
mp-19103,Li2Cr2P4O14,22,4,4,264.6384709502573,2.922530805969322,12.029021406829877,1.2729468,-7.858766455454545,-2.674344235238096,0.0,2.7339,1.0
mp-4226,Li1Cr1S2,4,6,164,63.14317555226688,3.236418276017989,15.78579388806672,4.45716663,-6.211872165,-1.252199797083332,0.0,0.6463000000000001,0.0
mp-756864,Li4Cr4Sn4O16,28,3,74,315.15221783850103,5.092909925735784,11.255436351375035,2.94301712,-7.331507507857142,-2.279595191904762,0.0,2.847299999999999,1.0
mp-12185,Li4Cu4P12O36,56,3,19,605.9891849483054,3.369396775172685,10.821235445505453,2.41454676,-7.173341923214286,-2.402899126232993,1.0,0.7209000000000001,1.0
mp-2759992,Li2Cu4F14,20,4,9,203.7681833230528,4.352005897083187,10.188409166152642,-0.7040696,-6.513113036999999,-1.9168636306666664,0.0,0.2837,0.0
mp-5127,Li4Cu4O4,12,1,139,133.92240303969075,4.2894703998712185,11.160200253307565,2.605350559999999,-5.084976770833333,-1.432946590277778,0.0,1.4376,1.0
mp-9158,Li1Cu1O2,4,4,12,36.93841492954792,4.607173182615962,9.23460373238698,2.3690108,-5.426594297499999,-1.450581410833332,0.0,0.3163,1.0
mp-15789,Li1Dy1S2,4,6,166,80.81103287065233,4.79951507296825,20.20275821766308,2.78006983,-5.794870512500001,-2.093866129999999,0.0,1.934699999999999,0.0
mp-15795,Li1Dy1Se2,4,6,166,91.78697945925003,5.922362110440497,22.94674486481251,2.27143029,-17.712812375,-1.9649048499479127,0.0,1.534799999999999,0.0
mp-1192210,Li8Dy8Sn8,24,2,186,557.532949890062,6.8657609229977545,23.230539578752584,4.45235774,-4.1582638525,-0.645973769166664,1.0,0.0044,0.0
mp-15791,Li1Er1S2,4,6,166,78.99878351904408,5.009650251732975,19.74969587976102,2.85204163,-5.7932666375,-2.104926434583332,0.0,2.006599999999999,0.0
mp-15797,Li1Er1Se2,4,6,166,90.01227488643976,6.126922528010394,22.50306872160994,2.31434152,-18.1916610325,-1.9578455220312487,0.0,1.6151,0.0
mp-672252,Eu8Li8P8S32,56,1,142,1337.645017315214,3.159474067109813,23.88651816634311,4.38011115,-6.274074123928571,-1.393224612925169,0.0,0.121799999999999,0.0
mp-753899,Li4Fe4C8O24,40,6,148,365.72392388805866,3.320021815317118,9.143098097201468,1.58022945,-7.7672925725,-1.914888463333333,1.0,2.1032,1.0
mp-25977,Li4Fe4P16O48,72,3,60,1008.5173945411304,2.493968756542278,14.007186035293476,-0.38998208,-7.628377117499999,-2.549689882050263,0.0,2.937999999999999,1.0
mp-558555,Li4Fe4Se8O24,40,1,122,597.6926926358993,3.519512379291169,14.942317315897483,0.11209862,-6.300582079,-1.594728772802084,1.0,2.6596,1.0
mp-557403,Li2Fe4F12,18,1,102,213.0242805197013,3.62660024826429,11.834682251094517,0.28057056,-6.123767502222222,-2.753536442592592,0.0,1.7058,0.0
mp-510641,Li4Fe4As4O16,28,3,62,327.91342263763573,4.085704840530358,11.711193665629848,2.17098205,-6.9008918875,-1.92361894047619,0.0,2.2859,1.0
mp-1211043,Li4Fe4Br16,24,4,14,699.9700930306828,3.628689090967424,29.16542054294512,-0.11778495,-4.0267114075,-1.205589704722222,0.0,0.9341,0.0
mp-1210931,Li4Fe4Cl16,24,4,14,584.8487893761583,2.323629479070109,24.368699557339927,-1.07923627,-4.483612902916666,-1.5214270234722211,0.0,1.2679,0.0
mp-1222351,Li2Fe2F12,16,1,102,178.52932297956295,3.288469874149039,11.158082686222684,-3.47782566,-4.915051543749995,-2.182294252916662,0.0,1.2569,0.0
mp-757614,Li2Fe2O4,8,3,59,72.09991707995987,4.365992908017233,9.012489634994983,2.66535709,-7.013653269374999,-1.944936747708332,0.0,1.712499999999999,1.0
mp-19294,Li2Fe2P4O14,22,4,4,255.94602694993728,3.07172801544365,11.63391031590624,0.63804996,-7.602633757727273,-2.525759379329004,0.0,1.7443,1.0
mp-774920,Li4Fe4Sb4O16,28,3,74,341.13051602356614,4.839395341868416,12.183232715127362,3.61103559,-6.851851970357143,-1.951882065119047,0.0,1.3545,1.0
mp-28146,Li4Ga20O32,56,0,212,555.7981907619588,5.778756905995078,9.924967692177836,2.00496544,-6.358398576785712,-2.313177789702379,0.0,2.8766,1.0
mp-28327,Li4Ga4Br12,20,4,11,548.321490832187,3.832457538276029,27.41607454160935,-0.265043,-3.389012248499999,-1.419440549666665,0.0,2.9955,0.0
mp-29345,Li4Ga4I12,20,4,11,701.2367235116269,4.33230623565728,35.06183617558135,1.3970052,-2.9085826215,-1.006771274666666,0.0,2.2732,0.0
mp-567967,Li4Ga4I16,24,4,14,915.7165012509514,4.238092843455725,38.154854218789644,0.55504154,-2.844055867499998,-1.005210975972221,0.0,2.5693,0.0
mp-3647,Li4Ga4S8,16,3,33,319.8535769623048,2.923762048412962,19.990848560144048,1.23761354,-4.579829011250001,-1.276394505208333,1.0,2.9608,0.0
mp-11582,Li4Ga4Se8,16,3,33,374.1015745850539,4.165028140620471,23.38134841156587,0.80562194,-11.676721915625,-1.063571209322917,1.0,2.0656,0.0
mp-5048,Li2Ga2Te4,8,1,122,239.65377548288564,4.598910538235989,29.956721935360704,2.3152225,-3.645618477499999,-0.839710808541665,1.0,1.5885,0.0
mp-1211108,Li2Gd2S4O16,24,1,118,349.4951846486044,3.385894834329996,14.562299360358516,2.09797979,-7.710596979166667,-2.390142622361111,0.0,2.6325000000000003,1.0
mp-15792,Li1Gd1Se2,4,6,166,94.24443640856369,5.675432096201595,23.56110910214092,2.55225743,-20.5281384125,-1.926430368697914,0.0,1.1717,0.0
mp-1020059,Li2Ge4N6,12,3,36,132.89428294043262,4.854158173740732,11.074523578369384,2.84554903,-6.5367822125,-0.50848024388889,1.0,2.763,0.0
mp-1222349,Li2Ge2Rh2O8,14,3,74,152.71212987465583,5.360366300721316,10.908009276761131,3.05721699,-6.704385862142857,-1.891799774761904,0.0,1.689499999999999,1.0
mp-23703,Li1H1,2,0,225,16.207758213722748,0.8143955033141881,8.103879106861374,-0.99767685,-3.410271545,-0.489362137708333,1.0,2.981,0.0
mp-1029331,Li2Hf4N6,12,3,63,160.23309718492,8.413755549025446,13.352758098743337,3.37007159,-21.762355106666664,-1.749723572152779,1.0,0.6376000000000001,0.0
mp-15790,Li1Ho1S2,4,6,166,79.99437682330124,4.898961991976115,19.99859420582531,2.83587916,-5.793551407499999,-2.09772104083333,0.0,1.9863,0.0
mp-15796,Li1Ho1Se2,4,6,166,90.88040626363966,6.025846419490355,22.72010156590992,2.23313827,-17.9353427075,-1.962550009947914,0.0,1.5729000000000002,0.0
mp-1192002,Li8Ho8Sn8,24,2,186,544.7542774201639,7.086081249980258,22.69809489250683,4.42032684,-4.142587124166667,-0.6371957286111081,1.0,0.006499999999999,0.0
mp-1200439,Li4In4C8N16,32,3,60,398.2926283013451,3.365452591481244,12.446644634417034,2.42000804,-7.410719360937501,-0.350902039062502,0.0,2.8984,0.0
mp-17854,Li4In4Ge4O16,28,3,62,340.8399842636136,5.035531848220658,12.17285658084334,2.37803476,-6.326747056785714,-2.172037273214285,1.0,2.4008000000000003,1.0
mp-541001,Li4In4I16,24,4,14,969.809601655855,4.310557020967439,40.40873340232729,1.84457894,-2.793979474583333,-0.999954962916666,1.0,2.3673,0.0
mp-5488,Li2In2O4,8,1,141,87.12220979913899,5.861211148870394,10.890276224892371,3.91786744,-5.70235671375,-2.061352058749999,0.0,1.814299999999999,1.0
mp-1188392,Li4In4S8,16,3,33,365.5210189743567,3.377928278021819,22.84506368589729,2.01076489,-4.418294920625001,-1.182090984374999,1.0,2.187499999999999,0.0
mp-20187,Li2In2Se4,8,1,122,210.40947671206865,4.414420042906587,26.30118458900857,1.5806244,-14.4540687475,-1.056964433697915,1.0,1.5731000000000002,0.0
mp-20782,Li2In2Te4,8,1,122,266.1031655628087,4.704605033033507,33.26289569535109,2.66456219,-3.57577265375,-0.8370955545833321,1.0,1.3847,0.0
mp-1078209,Li2La4Fe2O12,20,6,148,223.68777889515417,6.482073369123895,11.184388944757709,5.5780693,-7.755797190499999,-2.761924758833332,0.0,0.754699999999999,1.0
mp-12451,Li2La4Os2O12,20,4,14,249.18006831315373,7.610013482786796,12.459003415657689,6.48899788,-8.1466873245,-2.877080270833334,0.0,0.3355,1.0
mp-6644,Li2La4Ru2O12,20,4,14,254.3017403775872,6.292353134401718,12.71508701887936,5.90134737,-7.9366468095,-2.862336244833334,0.0,0.293899999999999,1.0
mp-560605,Li1La4Au1O8,14,3,65,209.8158301907756,7.024109433949402,14.98684501362683,5.28703347,-7.760094404285714,-3.152200023809523,1.0,1.6583,1.0
mp-1190624,Li8Lu8Sn8,24,2,186,531.8026244202966,7.509371487849421,22.158442684179025,4.52832891,-4.080676929166667,-0.6006162041666661,1.0,0.027999999999999,0.0
mp-12558,Li1Mg1As1,3,0,216,58.328389330975824,3.022463836722795,19.442796443658608,2.37069355,-7.987710163333333,-0.8998631680555551,0.0,1.372299999999999,0.0
mp-1222299,Li1Mg1B1N2,5,1,119,64.81829596255544,1.795089409315927,12.963659192511088,3.54419524,-6.457976942,-1.0789089135,0.0,2.6464,0.0
mp-570213,Li1Mg1Bi1,3,0,216,77.94396843335585,5.117847218284155,25.981322811118616,3.01990139,-2.873259673333332,-0.396783942777777,1.0,0.3587,0.0
mp-37906,Li1Mg1N1,3,0,216,30.452298785809447,2.467592898246037,10.150766261936482,2.91603628,-6.040044593333333,-0.8117910368055551,1.0,2.4462,0.0
mp-36111,Li1Mg1P1,3,0,216,53.39350070083401,1.9350359905122367,17.79783356694467,2.79208757,-3.736252886666667,-0.75129741765873,0.0,1.7113,0.0
mp-1207082,Li1Mg1Sb1,3,0,216,72.65014069787703,3.497205070541921,24.21671356595901,3.11473034,-3.172342869999999,-0.616211496111109,0.0,1.4438,0.0
mp-1295192,Li4Mn4C8O24,40,5,2,393.21673570360514,3.072573365152581,9.83041839259013,1.63080658,-7.906300013750001,-1.9846964963764384,0.0,0.904999999999999,1.0
mp-26983,Li4Mn4P16O48,72,3,60,1012.3732259003308,2.478519454469886,14.060739248615707,0.23417857,-7.692117964861111,-2.574986613740877,0.0,1.3434,1.0
mp-1272804,Li2Mn4O8,14,3,74,148.65876347556787,4.039450477596829,10.618483105397704,2.615264,-7.785934552857143,-2.0681063427422,0.0,0.426899999999999,1.0
mp-1210977,Li2Mn4Te2O12,20,5,1,231.9076162905286,4.874957605829479,11.59538081452643,4.69003262,-7.235553487999999,-1.929150950586206,0.0,0.012099999999999,1.0
mp-20052,Li4Mn4As4O16,28,3,62,340.8766555752494,3.91265667359391,12.17416627054462,2.33423274,-7.151699934285714,-2.075570689823481,1.0,1.9316,1.0
mp-558059,Li2Mn2F8,12,4,14,128.70969937290567,3.557508650992426,10.725808281075471,-1.11364659,-6.055091405,-2.934033461877396,0.0,1.855,0.0
mp-22200,Li3Mn3Fe3F18,27,6,150,329.2701445915272,3.5056708883616903,12.195190540426934,-0.43321394,-6.328166935555555,-2.881047644584929,0.0,2.4344,0.0
mp-771705,Li4Mn4Nb4O16,28,1,95,341.085212124965,4.260492653528718,12.18161471874875,1.70421211,-8.51176538607143,-2.659752926252054,0.0,2.7137,1.0
mp-756366,Li2Mn2Ni2O8,14,3,74,139.83127060839615,4.383651366580903,9.987947900599725,2.71977318,-6.941186613571429,-1.706483919466339,0.0,0.205499999999999,1.0
mp-754656,Li1Mn1O2,4,4,12,36.738538046608326,4.243169091621241,9.184634511652082,2.95363263,-7.40158500625,-2.159869964066093,0.0,1.150399999999999,1.0
mp-31924,Li4Mn4P8O28,44,4,15,498.203498226132,3.144034579419344,11.322806777866637,1.6481756600000002,-7.705107801136364,-2.565324869822735,0.0,1.2405,1.0
mp-1222353,Li2Mn2Rh2O8,14,3,74,143.3104599824254,5.301799876430993,10.2364614273161,3.15542488,-7.232857109285713,-1.7718442451806231,0.0,0.043499999999999,1.0
mp-755701,Li4Mn4Sb4O16,28,1,95,341.5516882125537,4.815790259989605,12.198274579019776,3.17380702,-7.098584631785714,-2.099758429109196,0.0,2.014,1.0
mp-19107,Li2Mn2V2O8,14,3,63,155.97052984040462,3.764986087521542,11.140752131457472,1.92721516,-8.078532514999997,-2.371862765180622,0.0,1.857499999999999,1.0
mp-585265,Li2Mo4P6O24,36,4,5,490.3701527223701,3.276141517703211,13.621393131176948,1.58659076,-8.019425834166666,-2.507082738458994,0.0,1.3835,1.0
mp-2767670,Li2Mo12Cl26,40,5,2,1019.6446904596309,3.3986793949646,25.491117261490768,4.57851071,-13.11260126525,-1.172586829208334,0.0,2.7719,0.0
mp-558917,Li2Mo2I2O12,18,4,4,260.23128451863494,4.157636337427093,14.457293584368609,1.18308338,-6.514779156666666,-1.6296289764814822,0.0,2.2334,1.0
mp-18987,Li2Mo2P4O14,22,4,4,291.2257489264939,3.156847265611529,13.23753404211336,3.4332438,-7.8756646786363635,-2.582824036601731,0.0,1.536099999999999,1.0
mp-8180,Li2N2O6,10,6,167,92.80084348909156,2.467377582518515,9.280084348909154,0.23629574,-6.404979223999999,-1.386762498666665,0.0,2.9369,1.0
mp-559052,Li2Nb6Bi8O28,44,4,15,620.7342804259896,7.199141946895747,14.107597282408854,3.20664391,-7.7501055325,-2.429904200833333,0.0,2.7191,1.0
mp-28463,Li4Nb12Cl32,48,3,64,1161.397575705695,3.255796548021494,24.19578282720198,3.05653547,-12.005633164375,-1.5215963690972232,1.0,0.8827,0.0
mp-29985,Li2Nb12Cl38,52,3,51,1295.262603400395,3.174220542549448,24.908896219238365,1.772453,-11.8034128025,-1.507739980737179,1.0,0.7552000000000001,0.0
mp-756415,Li4Nb4Fe4O16,28,1,95,332.39763535513816,4.389968586158098,11.871344119826365,2.21424705,-8.248900056428571,-2.495743894047618,0.0,2.2421,1.0
mp-1029903,Li4Nb4N8,16,3,62,191.65237873669187,4.431310932334379,11.978273671043242,2.41533404,-12.433343433125,-1.088772831666666,0.0,1.1528,0.0
mp-3924,Li2Nb2O4,8,2,194,77.26563847183948,5.667091788849184,9.658204808979937,5.22817792,-8.162920410000002,-2.686382930833336,1.0,1.579499999999999,1.0
mp-7936,Li2Nb2S4,8,2,194,127.4225028000824,4.273826671822952,15.9278128500103,5.91385699,-6.625703573750002,-1.553966813333334,0.0,0.713499999999999,0.0
mp-1025496,Li2Nb2Se4,8,2,194,146.4155846748299,5.846820275802376,18.301948084353736,5.60243542,-15.17258540375,-1.236610022447918,0.0,0.7318999999999991,0.0
mp-1211080,Li2Nd4Ru2O12,20,4,14,246.3905571783512,6.638251230322574,12.319527858917558,3.86939738,-7.8452131885,-2.8044745583333333,0.0,0.4246,1.0
mp-1191015,Li8Nd8Sn8,24,2,186,607.0569512174279,5.906106429099824,25.29403963405949,4.14982137,-4.224790463333333,-0.6625764119444431,0.0,0.0029,0.0
mp-2348641,Li3Ni3O6,12,5,1,104.9242529039366,4.635450955622343,8.743687741994716,3.39448681,-5.894236688333334,-1.497991299166667,0.0,0.018,1.0
mp-1222366,Li2Ni2Rh2F12,18,1,102,206.4249855050764,4.545502390446148,11.468054750282018,0.76334004,-5.262976811666666,-2.314478848703703,0.0,1.6961,0.0