material_id,composition,nsites,crystal_system,space_group,volume,density,density_atomic,efermi,energy_per_atom,formation_energy_per_atom,is_gap_direct,band_gap,is_oxide
mp-14634,K4V2Ag2Se8,16,3,70,484.497274885373,3.7895894427577854,30.28107968033581,0.88005934,-4.606428985625,-1.084775347567707,0.0,0.9843,0.0
mp-15147,K4V2Cu2S8,16,3,70,409.4803583902864,2.6030074719081773,25.5925223993929,1.69183789,-5.26371410375,-1.263802796812499,0.0,1.2343,0.0
mp-15220,K4V2Cu2Se8,16,3,70,457.2006529728248,3.693888575473212,28.57504081080155,1.18488955,-4.8152159225,-1.136528660484375,0.0,1.1253,0.0
mp-18832,K8V4O8F12,32,3,62,502.40585439639824,2.883858828483186,15.700182949887443,-0.86437093,-6.1706188796875,-2.797603298375,1.0,2.9836,1.0
mp-1224276,K8V4O4F16,32,3,33,508.4309276803335,2.888863219398797,15.888466490010424,-0.57136804,-6.005519589375,-3.0117675868125,0.0,2.7902,1.0
mp-19037,K4W4O14,22,4,14,320.9374642914357,5.772893584880375,14.58806655870162,2.91974789,-7.99436939409091,-2.283939672227272,0.0,2.4361,1.0
mp-757860,K6W12O39,57,5,1,862.8399975130764,5.897924397550806,15.137543816018884,0.42053747,-8.48426593263158,-2.251699962605264,0.0,1.9062,1.0
mp-1211879,K8W4S16,28,3,62,804.9928283657441,3.220415034886207,28.749743870205148,2.23215828,-14.783553479285716,-1.134365110535715,1.0,1.9435,0.0
mp-18138,K8W4Se16,28,3,62,899.5677469279668,4.266878946031491,32.12741953314167,0.67310136,-5.250695986785717,-1.078622331625001,1.0,1.319,0.0
mp-863763,K2Y4Cu4Se9,19,4,12,462.2671634093663,5.024157426922772,24.32985070575612,3.39469151,-5.507698185263158,-1.499322636610196,0.0,0.7046999999999991,0.0
mp-560785,K8Y16Sn8S44,76,1,130,2144.479112222627,3.171525001571357,28.216830423981936,2.51201039,-6.049090241052632,-1.741711062210524,1.0,1.7939,0.0
mp-560398,K4Zn2Ge4O12,22,3,20,356.82183306670873,3.582244906587079,16.219174230304944,-0.32783205,-5.973886057727273,-2.114221985409091,1.0,2.872499999999999,1.0
mp-722979,K4Zn2H16N8,30,5,2,361.52564818046847,1.907954198376904,12.050854939348948,-0.33743263,-4.709682048666667,-0.440553678966667,1.0,1.98,0.0
mp-1195072,K8Zn4Sn8Se24,44,1,130,1404.5585792095703,4.042280338826182,31.9217858911266,1.35715929,-3.936648953863637,-0.980549351005682,0.0,1.5684,0.0
mp-28371,K4Zn6O8,18,4,15,261.7476124595242,4.293919767100468,14.541534025529122,0.6808405200000001,-4.578666056666666,-1.708242246055554,1.0,1.4102,1.0
mp-1147664,K4Zn6S8,18,3,72,409.549129486023,3.265404812938068,22.752729415890165,1.05649849,-9.006338018333333,-1.127634460972222,0.0,2.5684,0.0
mp-1232308,K4Zn6Se8,18,3,72,463.9764085179895,4.225024158114938,25.776467139888307,0.73221439,-3.328860797222221,-1.10379233209722,0.0,1.9383,0.0
mp-1191100,K4Zn10As8,22,3,63,495.201507716428,4.727612759250781,22.50915944165581,2.5234107100000003,-2.808036412272727,-0.331495719045454,0.0,0.160499999999999,0.0
mp-8187,K4Zn2O4,10,3,72,167.76202198412008,3.4763287067969992,16.776202198412008,0.61507319,-4.261124989000003,-1.5774439759000032,1.0,1.9785,1.0
mp-1147773,K4Zn2S4,10,3,72,261.8029094266517,2.635211962151513,26.180290942665174,0.50957419,-8.656018894999999,-1.252593166624998,0.0,2.804299999999999,0.0
mp-1232317,K4Zn2Se4,10,3,72,294.935523378633,3.395284722872948,29.4935523378633,0.13143687,-3.326145926000001,-1.2232847238375,0.0,2.319099999999999,0.0
mp-12535,K4Zn2Te4,10,3,72,356.9169323786678,3.7108482041768953,35.69169323786678,1.20916442,-2.997599203,-1.035780234566666,1.0,2.0537,0.0
mp-560331,K16Zr8S32,56,3,61,1488.1217658018943,2.657364616409933,26.573602960748115,2.44619864,-5.463993586607144,-1.554868108678571,1.0,2.0197,0.0
mp-29602,K8Zr4Te12,24,4,14,892.0961961215934,4.111591927722137,37.17067483839973,2.25044236,-19.7281609575,-1.221828839583333,0.0,0.373899999999999,0.0
mp-2740887,K6Ni4O8,18,4,11,286.41883824584085,3.463240400472809,15.91215768032449,2.27760215,-8.737359803333334,-1.415770069027778,0.0,0.2216,1.0
mp-27565,K6Ni4O8,18,3,63,299.336967182846,3.313781459753919,16.629831510158112,2.56664285,-5.14540056611111,-1.284708727416665,0.0,1.3828,1.0
mp-1225940,K60Ga18As38,116,6,148,3944.039627940775,2.714740551124174,34.00034162017909,1.28414386,-3.050152853965517,-0.465216922887931,1.0,0.180099999999999,0.0
mp-1225850,K60Ga18Sb38,116,6,148,4663.52760136815,2.9296642404026363,40.20282414972543,1.81237563,-2.900259794655172,-0.49258773525862,1.0,0.286699999999999,0.0
mp-1228670,K76Nb14As48,138,3,36,4693.351102580364,2.783891550323533,34.00979059840843,1.24717662,-3.7338535878260872,-0.461619884572463,1.0,0.0131,0.0
mp-14206,K3Ag3As2,8,6,166,221.6485665583005,4.425705732686266,27.706070819787563,1.18140604,-3.007964274999999,-0.350068366468748,1.0,1.2533,0.0
mp-572510,K48Ag16O32,96,3,19,2184.6303895340984,3.127503002333693,22.75656655764686,2.43343428,-3.866334453958333,-1.177506311194443,1.0,1.7512999999999992,1.0
mp-28347,K6Al4As6,16,4,11,448.70492569103305,2.931152546592913,28.04405785568957,2.18420034,-3.669633839375,-0.5576802861562501,1.0,1.1862,0.0
mp-541682,K24Al8As16,48,5,2,1516.913936931255,2.575740855213499,31.60237368606781,1.6257383600000002,-3.243166526249999,-0.496511515708332,1.0,0.4517,0.0
mp-24034,K6Al2H12,20,4,14,304.6791795980204,1.6385694978914191,15.233958979901022,-0.39529445,-4.8542729025,-0.302516447875,0.0,2.8773,0.0
mp-9157,K6Al2O6,14,4,12,241.00128116481983,2.649608727128237,17.214377226058563,0.7867435500000001,-5.397711546428573,-2.257201830250001,0.0,2.8977,1.0
mp-541684,K24Al8P16,48,5,2,1414.6545072261308,1.936546030806195,29.4719689005444,1.89005464,-7.754808937916667,-0.6229684774503971,1.0,0.9707999999999992,0.0
mp-18217,K12Al4Se12,28,4,14,880.8290655745034,2.874224666365256,31.45818091337512,0.41664695,-3.900137007499999,-1.381934231611606,0.0,2.7325,0.0
mp-18378,K12Al4Te12,28,4,14,1081.6470567963563,3.236660283519737,38.6302520284413,1.30694134,-15.56166698,-1.127586541607144,0.0,2.2172,0.0
mp-14018,K6As2,8,2,194,297.3181781186043,2.147080340091364,37.16477226482554,0.53022712,-2.3193812025,-0.303323277312499,0.0,0.1118,0.0
mp-1197620,K12As4P12Se36,64,4,14,1969.9206491500609,3.357552327844034,30.780010142969697,0.90744391,-4.25508018625,-0.7692142127670191,1.0,1.5724,0.0
mp-541000,K12As44,56,3,60,1755.0577375645348,3.562926532516817,31.34031674222384,2.01650043,-4.168791160535712,-0.25697280155357,0.0,1.5084,0.0
mp-680329,K48As112,160,3,61,5319.436890725594,3.205285045854789,33.246480567034965,1.98501931,-3.9539269621875,-0.3454302726125,1.0,1.5521,0.0
mp-1193111,K12As4S12,28,0,198,831.4188123397332,2.304102605804453,29.69352901213333,0.47165702,-4.082506815714287,-1.156891043821428,1.0,2.5958,0.0
mp-3797,K12As4S16,32,3,62,909.649394307824,2.340082900103164,28.42654357211949,0.7603732400000001,-4.1896783090625,-1.112469562718749,1.0,2.1312,0.0
mp-18594,K12As4Se12,28,0,198,930.7567330450267,3.062159966375905,33.24131189446525,0.38960727,-3.7612594353571422,-1.110978559111606,0.0,2.1248,0.0
mp-1197539,K12As4Se16,32,3,62,1033.27956214033,3.265902848373523,32.28998631688531,1.44266619,-3.797843742812501,-1.041859041390626,1.0,1.113099999999999,0.0
mp-1211803,K6Au6Br16,28,4,15,891.1923367637386,5.021260681896885,31.828297741562093,0.49571988,-3.051572203214284,-1.172191671196426,1.0,0.813399999999999,0.0
mp-9200,K3Au1O1,5,0,221,142.59546003697025,3.845922408760981,28.51909200739405,0.47419197,-3.202910127999999,-0.8797196933499991,0.0,0.5612,1.0
mp-15571,K6Au2Se4,12,6,167,419.57168514662686,3.73750566854895,34.96430709555224,-0.04381844,-3.405754851666666,-1.129119164406249,0.0,2.0524,0.0
mp-1029756,K12B4N8,24,4,14,485.0517187347021,2.13785199958883,20.210488280612584,2.64854427,-4.991295662916667,-0.532952924736111,1.0,1.5863,0.0
mp-9664,K6B2P4,12,4,15,348.7604642542188,1.809787333366164,29.0633720211849,1.100264039999999,-7.773973234166667,-0.539756795783729,0.0,1.6658,0.0
mp-29975,K12B4S12,28,4,14,741.3842662366777,2.009540391323257,26.47800950845277,0.94355771,-4.457616237142856,-1.2449620026309511,0.0,2.7148,0.0
mp-558607,K6B2Sb8O26,42,5,2,601.6912190711166,4.543370183686669,14.325981406455158,4.20757246,-6.448273855000001,-2.119083428138889,0.0,2.0928,1.0
mp-31286,K18Bi6,24,2,185,1092.558650513159,2.975361818034186,45.52327710471494,0.53790796,-19.64048955625,-0.5012231678125,1.0,0.024699999999999,0.0
mp-865961,K3Bi1As6Se12,22,6,147,674.5666397980937,4.24220255207264,30.66211999082244,1.61474535,-4.200962385909091,-0.6893343674943181,0.0,1.398699999999999,0.0
mp-554216,K12Bi4P8S32,56,3,19,1503.0872964504783,2.8491243314749983,26.840844579472822,2.65175858,-4.675818559107142,-1.017106625609692,1.0,2.1148,0.0
mp-29524,K12Bi4O12,28,0,217,612.5239414103859,4.058589232689066,21.875855050370923,0.49814456,-4.836489303214287,-1.6753426613214302,1.0,2.9552,1.0
mp-30120,K6Bi2O8,16,5,2,304.92591943230804,4.250628469313457,19.05786996451925,0.45764756,-5.024495348749999,-1.639996911468749,0.0,1.1394,1.0
mp-28980,K12Bi4Se12,28,0,198,948.084515986386,3.945392464256935,33.86016128522807,0.60935434,-3.683892403214285,-1.145052701611606,0.0,2.0759,0.0
mp-29379,K12Bi4Te12,28,0,198,1133.5203186460324,4.155010607017799,40.48286852307258,1.45875338,-22.788420745714287,-0.958600962321428,0.0,1.2282,0.0
mp-28166,K3Br1O1,5,0,221,139.8196942845503,2.532004578426728,27.96393885691006,1.12577295,-3.560015648000001,-1.56421230635,1.0,0.8913000000000001,1.0
mp-1104232,K3Ca1P2O8,14,4,12,219.16486157236983,2.631494656373625,15.654632969454989,0.34851885,-6.728833822857142,-2.742094955788265,0.0,0.019699999999999,1.0
mp-561144,K12Ca4V20O60,96,3,67,1686.057883395773,2.568808685812808,17.5631029520393,-1.06985181,-7.734273110833334,-2.5243291744479173,0.0,2.7603,1.0
mp-17189,K6Ce2P4O16,28,4,11,417.7183172142527,3.556694253635383,14.918511329080454,5.18425572,-7.217453207857142,-2.949903627216836,0.0,0.0495,1.0
mp-21557,P8S32K12Ce4,56,4,14,1541.8633051048062,2.480812968304055,27.533273305442968,3.40846828,-5.131023645892857,-1.326103458109692,1.0,0.003,0.0
mp-1111145,K3Co1F6,10,0,225,156.4393898006716,3.080548839353999,15.643938980067158,-2.29922232,-4.884315758,-2.683251744175,1.0,2.898399999999999,0.0
mp-28825,K12Co4O8,24,3,62,512.1416529288501,2.700572327104606,21.339235538702088,0.87614742,-4.649377514166667,-1.245469531125,0.0,1.6284,1.0
mp-559099,K12Cu4N20O60,96,4,14,1452.6895785392653,2.244391878853707,15.132183109784014,-0.41031617,-6.340193097604167,-1.19835477934375,0.0,0.873799999999999,1.0
mp-569136,K6Cu22Te32,60,3,74,1642.9714548179695,5.77691849606369,27.382857580299497,4.94027164,-3.741284430333333,-0.448675202613887,0.0,0.0815,0.0
mp-556522,K6Cu4Bi10S20,40,3,58,1025.1201631985014,5.21571330710694,25.628004079962533,3.90307062,-4.45920540599999,-0.837890919337489,1.0,0.5758000000000001,0.0
mp-14205,K3Cu3As2,8,6,166,195.0745973899275,3.896740569897688,24.38432467374093,2.20192569,-3.42691037,-0.29791358959375,0.0,1.2741,0.0
mp-7439,K3Cu3P2,8,6,166,184.7065539453757,3.325279373704374,23.088319243171963,2.49067692,-8.982202073749999,-0.407285519650297,0.0,1.2892,0.0
mp-10914,K12Cu20O16,48,4,14,941.4375102767572,3.52077051239991,19.613281464099103,1.49010723,-4.732836808958333,-1.092671264104166,1.0,1.593499999999999,1.0
mp-28273,K24Cu8O16,48,1,92,970.2777395941904,2.914040978998382,20.214119574878964,1.32930781,-4.186012822916667,-1.287806514875,1.0,1.521599999999999,1.0
mp-558415,K12Cu4P8S28,52,4,14,1378.04073541174,2.252113277136547,26.500783373302696,1.65806879,-4.651767560769232,-1.013861417579669,0.0,2.3196,0.0
mp-866661,K6Dy2As4S16,28,4,15,802.2215024498697,2.8405928473233093,28.650767944638204,1.22340008,-4.783840197857143,-1.179582604886903,0.0,1.6543,0.0
mp-1224251,K6Er14S24,44,3,31,1144.3269551045607,4.855073455363304,26.007430797830924,3.47882339,-18.25877347909091,-2.260917708106058,1.0,1.8393,0.0
mp-581237,K12Fe8P12O48,80,4,15,1187.100794217142,2.875406525532265,14.838759927714277,0.53664451,-7.28082135275,-2.483016141533928,0.0,2.2618,1.0
mp-566670,K6Fe10P12O48,76,4,15,1116.721318035277,2.873874975921071,14.69370155309575,2.39503939,-7.61771187368421,-2.433813966042292,1.0,1.833,1.0
mp-28696,K12Fe4O16,32,3,62,535.5768043634179,2.940949493687625,16.736775136356812,0.37522829,-5.494960733125,-1.537963933343749,1.0,0.243299999999999,1.0
mp-567524,K12Ga12As16,40,3,52,1066.9066940529149,3.8981741908978673,26.672667351322872,1.82064918,-3.569032703749998,-0.453143967174998,1.0,0.8722000000000001,0.0
mp-13743,K6Ga2O6,14,4,12,248.73995064104847,3.137842669215118,17.76713933150347,0.11546995,-4.925301336428573,-1.887288735607144,1.0,2.6237,1.0
mp-541686,K12Ga4S12,28,4,14,780.546746661879,2.41003417989416,27.876669523638533,0.3458422,-4.012894096428573,-1.32185354025,0.0,2.7008,0.0
mp-541687,K12Ga4Se12,28,4,14,876.9644557261856,3.2106159769808422,31.320159133078057,0.16267835,-3.685414302857143,-1.269708642325892,0.0,2.4441,0.0
mp-541688,K12Ga4Te12,28,4,14,1070.6259753656277,3.535146374437012,38.23664197734384,1.18636153,-3.312905009642859,-1.048316028107144,0.0,1.6626,0.0
mp-1211764,K12Gd4B8O24,48,3,62,726.1645941061519,3.5870792127415783,15.128429043878164,0.82468933,-7.855734578541667,-2.812669496881944,0.0,2.6966,1.0
mp-978099,K6Gd2P4O16,28,4,11,391.65508623013466,3.938668857991031,13.98768165107624,1.17039239,-7.815626844642849,-2.966707809002542,0.0,1.2922,1.0
mp-604889,K6Gd6P8S32,52,4,15,1411.5063079890697,2.884560397640109,27.14435207671288,1.556840789999999,-6.5227353303846165,-1.388192135396977,0.0,1.498999999999999,0.0
mp-1196998,K6Ge34,40,0,227,963.9823079129116,4.658465674929789,24.099557697822792,2.74284482,-4.180683374,-0.0814042388375,0.0,0.058699999999999,0.0
mp-17112,K6Ge8Au2,16,3,59,486.4477749420352,4.129239475759041,30.4029859338772,1.91681784,-3.414514003750003,-0.269501180218753,0.0,0.8175999999999991,0.0
mp-14434,K6Ge2S6,14,4,12,397.0291643303487,2.3934255705055403,28.35922602359633,1.0315375,-4.159961797142857,-1.241073836321428,0.0,2.4164,0.0
mp-14435,K6Ge2Se6,14,4,12,443.5586706608239,3.195711695145406,31.682762190058845,0.53344908,-3.8310549064285713,-1.187501841254464,0.0,1.8278999999999992,0.0
mp-27331,K12Ge4Te12,28,4,15,1072.741889362395,3.546234879745465,38.31221033437125,1.31285554,-3.467519832857141,-0.975083446678569,0.0,1.1611,0.0
mp-1211819,K6Hf8Ag4F46,64,4,14,930.1054776525636,5.29867762684658,14.532898088321303,-0.839556499999999,-6.3745818725,-3.470602332815104,1.0,0.6645,0.0
mp-28171,K3I1O1,5,0,221,148.3913038780024,2.911695034511509,29.67826077560048,1.8514774999999992,-3.419062857999999,-1.445846300349999,1.0,1.0284,1.0
mp-984107,K12I4O20,36,1,129,630.7621851376414,3.413906225322841,17.521171809378927,0.99495435,-4.8045666844444455,-1.509241483527778,1.0,1.497999999999999,1.0
mp-583615,K12In8As12,32,3,64,1009.5120748587568,3.761512388804484,31.54725233933616,2.14936574,-3.286407440625,-0.421054409072916,0.0,0.9935,0.0
mp-20256,K6In2P4,12,3,72,379.0357775847673,2.576531561766659,31.58631479873061,1.82312996,-3.188210523333334,-0.357505529617063,0.0,0.7887000000000001,0.0
mp-541141,K12Ir4Cl24,40,4,14,1065.7228474966562,3.254816776176255,26.643071187416403,1.03683386,-12.3172750235,-1.584397159124999,1.0,1.9042,0.0
mp-16209,K12La4P8S32,56,4,14,1568.3556818766926,2.43378080453251,28.0063514620838,1.8000864600000002,-5.109514204821429,-1.376089928823979,1.0,2.478099999999999,0.0
mp-542079,K12La4P8Se32,56,4,14,1777.1346785961498,3.550043434590643,31.734547832074103,1.58609737,-4.558862830535714,-1.192551748734694,1.0,1.4776999999999991,0.0
mp-560739,K12Li12Te4O24,52,3,62,708.2534865265742,3.392235901547296,13.620259356280274,1.48422318,-5.179189146153845,-1.9521160929551271,1.0,2.8097000000000003,1.0
mp-1211905,K12Li4Ge16,32,3,62,941.601004956613,2.926015554315364,29.42503140489416,1.773755,-3.223867301249999,-0.249474369385415,1.0,1.0603,0.0
mp-554144,K3Mn2F7,12,1,139,187.061660509768,3.197124611637336,15.588471709147328,1.17596261,-5.927709413333335,-3.001450548551007,0.0,0.7123,0.0
mp-1003764,K12Mn16O32,60,5,1,779.4353994690597,3.962975631267257,12.990589991150994,2.33058657,-7.263995125833346,-1.955604567398289,0.0,0.487499999999999,1.0
mp-540914,K12Mn4O12,28,4,14,505.3422799501837,2.8946908617311813,18.047938569649418,1.09440457,-5.626610745,-1.712323962811576,1.0,1.6113,1.0
mp-560580,K6Mo24P2O80,112,0,224,1556.6347984678264,4.137973113610472,13.89852498631988,0.39779989,-8.081264589553571,-2.065624871453443,1.0,2.2532,1.0
mp-620069,K6Mo4Cl18,28,2,176,745.2995593766051,2.799510104335166,26.617841406307324,1.82713594,-10.55808072,-1.588744950982144,0.0,0.631799999999999,0.0
mp-1196835,K12Mo8O16F20,56,3,58,926.1973782857228,3.35740733731189,16.539238897959333,0.05835168,-6.468578090892857,-2.579541284946429,0.0,2.5171,1.0
mp-27643,K12Mo4Cl24,40,4,14,1109.3982917843289,2.550252461066767,27.734957294608225,1.19597009,-9.90021704625,-1.7960765828749992,0.0,1.6993,0.0
mp-28111,K6N2O6,14,1,108,264.54226948074967,2.250939504813103,18.89587639148212,1.10328007,-5.079063802857143,-1.282453813107143,0.0,0.2174,1.0
mp-553975,K12Na8In4O16,40,4,14,741.7593865888183,3.063278381610673,18.543984664720465,0.81046617,-4.487870659749999,-1.625013810867528,0.0,2.133199999999999,1.0
mp-18447,K12Na8Sn4As12,36,3,64,1107.8146072005302,3.038331150823555,30.772627977792503,1.6720921,-3.130323452222222,-0.452824543556513,0.0,0.94,0.0
mp-568329,K12Na8Sn4Bi12,36,3,73,1369.868862356046,4.40715625543124,38.05191284322351,2.04087967,-2.771850820277778,-0.354381319112069,0.0,0.0109,0.0
mp-16847,K12Na8Sn4P12,36,3,64,1023.2107730917476,2.433694477405732,28.42252147477076,1.98181536,-3.310861882222222,-0.384912642604131,0.0,1.1005,0.0
mp-1191678,K6Na2Mn2Cl12,22,6,167,603.2268497384196,2.245926199115287,27.41940226083725,0.75205591,-4.307379304090909,-2.035642755096394,1.0,2.4629,0.0
mp-541393,K6Na2Re4O18,30,2,194,472.8749800283666,4.612063968143542,15.762499334278887,0.72765724,-7.175709697,-2.231462536541954,1.0,1.823099999999999,1.0
mp-628185,K6Na2Sn6Se16,30,1,125,966.4651986079944,3.876487786338696,32.21550662026648,2.10063695,-4.001818682333334,-1.01969619345862,1.0,1.6836000000000002,0.0
mp-559516,K12Nb4S16O64,96,3,62,1549.4434744069622,2.548296221580618,16.14003619173919,0.23008962,-6.7745810396875,-2.223904849760416,1.0,2.9664,1.0
mp-581115,K6Nb4Ag6S16,32,4,15,933.9978655816352,3.140567503755644,29.187433299426104,0.82587474,-5.195808704375,-1.118783152921874,1.0,1.9519,0.0
mp-542545,K6Nb4As2Se22,34,4,9,1016.0095895348852,4.074784701946772,29.88263498632015,1.47897645,-4.946977444411765,-1.022161677648897,0.0,1.1802,0.0
mp-581419,K6Nb4Cu6S16,32,4,15,833.3484339007555,2.989974872639653,26.04213855939861,1.78053542,-5.5085976096875005,-1.196021622296875,0.0,1.8542,0.0
mp-1202743,K6Nb4Cu6Se16,32,4,15,900.4982812424047,4.150620415189939,28.140571288825143,1.19021243,-5.0622364165625005,-1.07088447409375,0.0,1.6021,0.0
mp-6168,K12Nb8Cu4Se48,72,4,14,2101.8063733131903,4.153068960937117,29.19175518490542,1.813592659999999,-4.887045086805555,-1.017774884020833,0.0,1.266499999999999,0.0
mp-680410,K12Nb8S44,64,4,15,1811.3555535003893,2.4048710825150432,28.302430523443583,2.8728274,-5.4883653903125005,-1.168448234640624,0.0,1.3870999999999991,0.0
mp-28428,K12Nb8Se44,64,4,14,1967.804160630277,3.954864943224108,30.74694000984808,1.36223992,-4.947109125312499,-1.068875031408202,0.0,1.0744,0.0
mp-558828,K3Nb3B2O12,20,6,157,270.2289590424201,3.746128869878559,13.511447952121006,0.5114422,-8.199182425500029,-2.877565431004194,0.0,2.3377,1.0
mp-561406,K12Nb24V4O76,116,2,189,1780.8042714653325,3.840503146315098,15.351760960908038,0.27049756,-8.652729013793103,-2.890759890577585,1.0,2.3407,1.0
mp-554572,K12Nb4P8O36,60,4,14,943.9080574608704,2.928346142139179,15.731800957681171,1.16524445,-7.368810431833334,-2.778276411569048,1.0,2.8105,1.0
mp-18383,K12Nb4S16,32,3,62,952.5171040440632,2.360180937792134,29.76615950137698,0.37205199,-5.226584893125,-1.470478333343749,1.0,2.4051,0.0
mp-17283,K12Nb4Se16,32,3,62,1060.7565542206808,3.293921089089185,33.148642319396274,0.31478489,-4.7827279703125,-1.347845455453125,1.0,1.8918,0.0
mp-559059,K6Nd2As4S16,28,4,15,829.3683958138357,2.674503186362058,29.62029985049413,1.00638468,-4.805676685714286,-1.190721099589285,0.0,1.6896,0.0