material_id,composition,nsites,crystal_system,space_group,volume,density,density_atomic,efermi,energy_per_atom,formation_energy_per_atom,is_gap_direct,band_gap,is_oxide
mp-30946,Ga2Pd1I8,11,4,12,471.9229702304659,4.437395235106587,42.902088202769626,-0.18774533,-2.842478662727276,-0.71264459227273,0.0,1.4176,0.0
mp-1072429,Ga4Ru2,6,3,70,84.09379008953094,9.498589936716057,14.01563168158849,6.26227078,-16.546943346666666,-0.443580948333334,0.0,0.1293,0.0
mp-539,Ga4S6,10,4,9,219.106108358102,3.571704039881657,21.9106108358102,2.33866981,-10.195047055,-0.7969372256875,0.0,1.7106,0.0
mp-1195835,Ga8Sb4Te16Cl28,56,4,14,1905.8855858662864,3.554000429570283,34.03367117618368,1.28364424,-3.708224893928571,-1.158352289761904,1.0,1.230899999999999,0.0
mp-1340,Ga4Se6,10,4,9,251.7131984069082,4.965206661647674,25.17131984069082,1.84569574,-13.864913983,-0.700867464437499,1.0,1.043599999999999,0.0
mp-14280,Ga8Sn8S20,36,3,33,871.3852533744441,4.094752066420875,24.205145927067893,3.53040311,-13.175230798888888,-0.669351368784722,0.0,1.839799999999999,0.0
mp-570186,Ga8Te8Br28,44,4,14,1604.8023087390277,3.948426761089052,36.47277974406881,-0.85016242,-3.1735496359090902,-1.009783310757574,0.0,1.0077,0.0
mp-542662,Ga8Te8Cl28,44,4,14,1390.43458946808,3.070760032179469,31.600786124274546,-0.71114827,-11.617945245909093,-1.000938627499999,0.0,1.458899999999999,0.0
mp-38970,Ga4Te6,10,4,9,320.9027447491865,5.404814384204682,32.09027447491865,3.515628,-20.229681385,-0.402236419000001,0.0,0.6375000000000001,0.0
mp-2371,Ga2Te5,7,1,87,228.92146841272137,5.639398803979377,32.703066916103054,3.76635341,-21.72335594,-0.298831161428572,0.0,0.7230999999999991,0.0
mp-28931,Ga4Te2O12,18,1,136,186.747434915548,6.456271683783465,10.374857495308218,4.19176709,-6.249511287777777,-1.928704180185184,1.0,0.7341000000000001,1.0
mp-27255,Ga4Te2S4,10,1,109,260.17349023801563,4.227415217570599,26.017349023801565,2.29491734,-13.560660762,-0.6861058871250001,0.0,2.0196,0.0
mp-28423,Ga4Te2Se4,10,1,109,290.9726209732,4.850440172800529,29.09726209732,1.67965935,-16.005362421,-0.6201830866250021,1.0,1.6141,0.0
mp-569854,Ga6Bi10Cl24,40,6,161,1302.8571325411242,4.281186196814461,32.5714283135281,0.28129826,-3.765429721749999,-1.229581060875,0.0,1.813,0.0
mp-636368,Ga12Fe4,16,1,136,248.47301477035109,7.084328261604737,15.529563423146945,4.01970796,-4.626824463125,-0.238247143749999,0.0,0.2215,0.0
mp-570844,Ga12Os4,16,1,136,285.8497993541225,9.280645208210933,17.865612459632658,3.79161854,-22.14267585625,-0.314286681250003,0.0,0.676999999999999,1.0
mp-672204,Ga12Ru4,16,1,136,281.3699895538707,7.323652110869979,17.58562434711692,3.88447869,-15.338596460625,-0.400380674374999,0.0,0.378699999999999,0.0
mp-1196451,Ga6Sb14S16Cl28,64,4,4,1871.4905822257497,3.21968033891111,29.24204034727734,1.02590366,-4.150799293125001,-1.120368902890625,1.0,2.0643,0.0
mp-1212718,Ga12Te12Br4,28,3,62,892.852747808779,4.9982323156054544,31.887598136027822,3.27256243,-3.615228677499997,-0.7364926371428541,0.0,1.3147,0.0
mp-1212726,Ga12Te12Cl4,28,3,62,866.5036405361326,4.809483508227039,30.946558590576164,3.30273313,-17.292757820714286,-0.6166950096428551,0.0,1.3323,0.0
mp-28608,Ga12Te12I4,28,3,62,947.321122147258,5.040392124569322,33.83289721954493,2.05419886,-3.508836728571428,-0.6462341053571421,0.0,1.259099999999999,0.0
mp-23519,Ga8Bi4O18,30,3,55,391.8493637766656,7.1265138383372975,13.061645459222186,2.45326152,-6.368367666666663,-2.073427549666665,0.0,2.8782,1.0
mp-669455,Ga4Hg11As4Br16,35,4,12,1247.6592532645643,5.408250915415627,35.64740723613041,-0.65994679,-2.507622407714286,-0.782182087928573,0.0,1.0916,0.0
mp-1203087,Ga4Hg11P4Cl16,35,4,12,1127.4239981041685,4.678580504856417,32.212114231547666,-0.51404353,-2.892620189428571,-0.9852671778877572,0.0,1.718799999999999,0.0
mp-531948,Ga36Sn6Te60,102,6,152,3438.096609183415,5.254018212715765,33.70682950179818,3.51150147,-3.726932889117646,-0.573332481862744,1.0,0.8666,0.0
mp-686076,Ga36Te60Pb6,102,6,154,3462.5403245599405,5.471551819733505,33.946473770195496,3.27830543,-3.727090431764706,-0.5909561883333321,1.0,1.019,0.0
mp-1203106,Ga14Sb14Te16Cl52,96,5,2,3174.613604990165,3.434422170293039,33.06889171864756,1.30665586,-3.7867140128125,-1.217792329809027,1.0,1.4002,0.0
mp-18388,Ga14Te20,34,6,155,1106.8716369428712,5.2929212540959725,32.555048145378564,3.43125209,-20.07323015529412,-0.410190464117647,0.0,0.5754,0.0
mp-1203849,Ga16Sb14Se16Cl58,104,5,2,3225.7879327240707,3.160606870750415,31.01719166080837,0.62939457,-3.881134733461538,-1.290696081899038,0.0,1.684699999999999,0.0
mp-654129,Ga8Ag8P16Se48,80,3,61,2195.8529925693583,4.315263003000939,27.44816240711698,2.57950985,-4.271586346375,-0.5038413846264871,0.0,1.713499999999999,0.0
mp-11020,Ga2Ag2O4,8,2,194,96.21024924019014,7.234829671833125,12.026281155023767,2.52557321,-5.52409440749999,-1.582355479791656,0.0,0.583299999999999,1.0
mp-5342,Ga2Ag2S4,8,1,122,171.9105623236812,4.669724656821038,21.48882029046015,2.313834,-12.83669306125,-0.6195302464062491,1.0,0.9622,0.0
mp-5518,Ga2Ag2Se4,8,1,122,198.74062122913065,5.606598705752501,24.84257765364133,1.755133359999999,-15.89542622125,-0.5399828320312511,1.0,0.249199999999999,0.0
mp-1224848,Ga1Ag1Sn1Se4,7,1,82,199.9732613468383,5.083101460811751,28.567608763834045,1.82359341,-4.084467770000001,-0.6752889890773811,1.0,0.8903000000000001,0.0
mp-4899,Ga2Ag2Te4,8,1,122,245.11256665298265,5.863972664430087,30.63907083162283,3.07513582,-21.25041342125,-0.342137992499999,1.0,0.1926,0.0
mp-2534,Ga1As1,2,0,216,47.53185938534384,5.05320036242451,23.76592969267192,2.72603823,-13.521430525,-0.446277056249999,1.0,0.1861,0.0
mp-1224998,Ga4Bi12Sb8O44,68,4,7,885.0562649461477,8.376672008198728,13.015533308031584,5.23190214,-6.436715935588235,-1.8847293186764704,0.0,2.7016,1.0
mp-1212662,Ga4Cl4O4,12,3,29,244.009756274195,3.29849902205998,20.33414635618292,-0.82306999,-5.254478655833334,-1.9796120466666671,0.0,2.675,1.0
mp-1212660,Ga2Cu2Br8,12,1,112,355.6865718745633,4.228628768377309,29.64054765621361,0.28357404,-3.311058367499988,-1.031876895416655,0.0,1.9902,0.0
mp-29362,Ga2Cu2Cl8,12,1,112,297.32681933848096,3.072597002824603,24.777234944873413,1.15015282,-8.841747101666668,-1.025192511666667,0.0,1.8173,0.0
mp-1224851,Ga1Cu1Ge1Se4,7,1,82,163.89084271772913,5.286351470848596,23.41297753110416,2.87321888,-4.334498697142856,-0.6582163459821421,1.0,0.7335,0.0
mp-29403,Ga1Cu1I4,6,1,82,227.90122774330152,4.669644442240902,37.98353795721692,1.64638039,-2.871509844999998,-0.6676176529166651,1.0,1.4404,0.0
mp-11019,Ga2Cu2O4,8,2,194,87.56813597285675,6.267888091990467,10.946016996607094,4.15341595,-5.930823704999989,-1.6750175293749892,0.0,0.7812999999999991,1.0
mp-5238,Ga2Cu2S4,8,1,122,148.55064780143238,4.413158152577409,18.568830975179047,4.40697034,-10.28826728875,-0.6983747601562481,1.0,0.7056,0.0
mp-4840,Ga2Cu2Se4,8,1,122,174.38032577841304,5.545702568288753,21.79754072230163,3.21228489,-13.3018239975,-0.5736508945312491,1.0,0.0398,0.0
mp-3839,Ga2Cu2Te4,8,1,122,218.2897171285937,5.910200069415345,27.286214641074217,4.43099855,-18.6273470875,-0.346341944999998,1.0,0.205799999999999,0.0
mp-1097025,Ga4Fe8B4O20,36,3,55,367.2565819441348,4.923354705922516,10.20157172067041,3.30238412,-7.835278394444444,-2.125574479074073,0.0,2.0716,1.0
mp-8211,Ga2Ge2Te2,6,6,166,172.40117104671916,5.200476369328776,28.733528507786527,3.56198043,-17.207088891666668,-0.296429611666667,1.0,0.1672,0.0
mp-571190,Ga8Hg16Sb8Cl32,64,3,60,2047.3424447291284,4.765688061930044,31.98972569889263,0.33971776,-2.97867877,-1.082352202812501,0.0,1.1427,0.0
mp-1103091,Ga2Hg2Cl8,12,5,2,354.2281739827701,3.86389176856278,29.51901449856417,-1.62429467,-3.141458919166666,-1.352802375833334,0.0,2.8274,0.0
mp-570738,Ga12I24,36,6,161,1479.4413319299028,4.357624036057486,41.09559255360841,0.21643643,-2.753105004444444,-0.727731253611111,1.0,2.4744,0.0
mp-30954,Ga4I12,16,4,14,713.5099372572107,4.1931707844143045,44.59437107857567,-0.37045574,-2.684162189375001,-0.7841287225000011,0.0,2.3721,0.0
mp-804,Ga2N2,4,2,186,45.72832358928343,6.080976820120369,11.432080897320857,3.440123299999999,-10.9558127175,-0.670049406875,1.0,1.726499999999999,0.0
mp-541950,Ga1N5O14,20,4,5,250.6283953797885,2.41001395526723,12.531419768989426,-1.22196937,-6.584007209000001,-0.8844602681250001,0.0,1.2545,1.0
mp-2490,Ga1P1,2,0,216,40.5058667192971,4.128066394428307,20.25293335964855,3.4774535,-10.731342265,-0.508916133988096,0.0,1.603899999999999,0.0
mp-29817,Ga8P16I72,96,3,61,4707.589704927481,3.594557135271475,49.03739275966126,0.42195195,-2.815827158645833,-0.517897441294643,1.0,1.7419,0.0
mp-30979,Ga4P4S16,24,4,14,586.366088796224,2.593544579931285,24.43192036650933,1.19280688,-9.269997902083334,-0.5058564702876981,1.0,2.3331,0.0
mp-561379,Ga4Re4Cl24O8,40,4,14,1180.2549884888665,2.817504956391444,29.506374712221657,-1.99642009,-5.18498934525,-1.5386504412500002,0.0,1.9749,1.0
mp-2507,Ga4S4,8,2,194,179.0698300424525,3.775576275936825,22.383728755306564,1.57488932,-10.50262533375,-0.763737817656249,0.0,2.0036,0.0
mp-1224914,Ga1Sb3Pb4O13,21,6,160,298.8216331321729,8.178703134767211,14.22960157772252,6.61239386,-6.354475721904762,-1.850229003452379,0.0,1.388999999999999,1.0
mp-1224786,Ga1Sb1O4,6,3,65,64.74197216120193,6.552712296160798,10.790328693533654,4.61990815,-6.546005466666666,-2.054515252916665,1.0,0.7966999999999991,1.0
mp-568263,Ga8Se8,16,2,186,407.231921416199,4.850188151865577,25.45199508851244,1.43152927,-13.56718679875,-0.69001870828125,0.0,1.2121,0.0
mp-1120728,Ga4Se4Cl4,12,3,58,319.9378350324728,3.822805408887302,26.661486252706062,-0.31768545,-11.607932560833332,-0.972340868020834,1.0,2.51,0.0
mp-542812,Ga6Te6,12,4,12,381.42452478437787,5.154297046168311,31.785377065364823,2.8866592,-18.87299333083333,-0.442993200833332,1.0,1.0066,0.0
mp-27449,Ga4Te4Cl4,12,3,58,361.4047301712778,4.278124877709205,30.11706084760648,0.97439076,-15.15647961,-0.818999890833334,1.0,2.1702,0.0
mp-29541,Ga2Te2I14,18,4,7,867.7597786007699,4.155000971060877,48.20887658893166,0.35507284,-2.472750710000001,-0.601696241018519,0.0,1.5853000000000002,0.0
mp-1204314,Gd16B48O96,160,3,62,1502.0648615781222,5.053116587516156,9.387905384863265,2.36303368,-9.5555821623125,-3.175375804062499,1.0,2.692999999999999,1.0
mp-1212754,Gd2Cl6O24,32,2,176,437.5074705811312,3.458430489008011,13.67210845566035,-0.46088125,-5.9026406796875,-0.9653105109375,0.0,2.2925,1.0
mp-510661,Gd4I12O36,52,4,14,780.3990259896648,5.804302054066328,15.007673576724322,3.73072018,-6.334335269038462,-1.474349951346154,0.0,1.2373,1.0
mp-1203247,Gd4N12O36,52,4,14,688.6212381232319,3.310989629586324,13.24271611775446,-0.81519489,-7.878720598846154,-1.446212558846155,0.0,2.5904,1.0
mp-727793,Gd8S24O96,128,3,61,1977.0877160139903,2.9929551942454062,15.4459977813593,-1.17299285,-7.2653233478125,-1.8986525351562504,1.0,0.0048,1.0
mp-646008,Gd20S38,58,1,86,1217.5235668486775,5.951188624373995,20.991785635322028,4.90858296,-22.26340875275862,-2.034614423049569,1.0,0.445,0.0
mp-557726,Gd8Au20F84,112,1,92,1820.4517227746703,6.196467216147256,16.254033239059556,0.12181104,-5.2314623623214285,-2.206013992499999,0.0,1.5508000000000002,0.0
mp-554636,Gd16B8O24F24,72,4,14,876.6839274110141,6.5203639334982615,12.176165658486306,4.05402227,-10.03458604888889,-3.877133116574075,0.0,2.7369,1.0
mp-505435,Gd8Br12N4,24,5,2,650.8762502796291,5.798640520789002,27.11984376165121,1.20635912,-9.0954884225,-2.195261450833333,0.0,1.8727,0.0
mp-1025163,Gd2C1N2O2,7,6,164,103.5262494947376,6.199745269610589,14.789464213533943,1.88124867,-11.56324064,-2.427042429642857,1.0,2.4257,1.0
mp-29394,Gd2C1Cl2,5,6,164,115.83032378253247,5.69735052548278,23.166064756506497,2.535882,-9.930597966,-1.714998851499999,0.0,0.4861,0.0
mp-8301,Gd2C1F2,5,6,164,77.16918622007135,7.843531649018726,15.43383724401427,3.41776798,-10.765896819999998,-2.524173875499998,0.0,0.7328,0.0
mp-1078829,Gd4Cl6,10,4,12,273.76022379706694,5.105583282604672,27.376022379706693,4.06503389,-23.102012621,-2.051747162499998,0.0,0.1814,0.0
mp-1224730,Gd4Cr2Sb2O14,22,3,74,271.19347820689035,7.350779497657932,12.32697628213138,4.27902406,-9.967468979090908,-3.006558049545453,1.0,1.9649,1.0
mp-1224759,Gd4Fe2Sb2O14,22,3,74,277.80937041602766,7.221736092357808,12.627698655273983,4.34623317,-9.694451140454545,-2.841088052727272,1.0,1.8178,1.0
mp-1224682,Gd4Ga2Sb2O14,22,3,74,279.05188770022954,7.35474644653152,12.684176713646798,3.64346352,-9.32768449409091,-2.9690418779545453,0.0,2.377399999999999,1.0
mp-581229,Gd12Ge12O42,66,5,1,883.7901539425544,6.445801974604361,13.390759908220522,1.67598931,-9.543713381515152,-2.995165451969698,0.0,2.7793,1.0
mp-1224706,Gd2Ge1Mo1O8,12,1,82,152.53266518111653,6.652438944966585,12.71105543175971,2.44858908,-9.8385561775,-2.9048386370833352,0.0,2.4793000000000003,1.0
mp-1190245,Gd4Hf4O14,22,0,227,290.39267229586017,8.960227290516483,13.199666922539098,5.05320159,-11.51793759318183,-3.99954217727274,0.0,2.8263,1.0
mp-1195809,Gd8Hf4S20,32,3,62,655.4684022608096,6.620334872307802,20.4833875706503,4.61883534,-23.6619364790625,-2.146883803945314,1.0,1.0037,0.0
mp-756040,Gd4Hg2O8,14,4,12,217.44629310547973,8.844460570474553,15.531878078962842,1.41594627,-9.876073277857143,-2.982678915357146,1.0,1.9856,1.0
mp-1225008,Gd4In2Sb2O14,22,3,74,290.14657720063053,7.589680771436805,13.188480781846842,3.9679199,-9.249006199090909,-2.914811062878784,1.0,2.3762,1.0
mp-1212711,Gd4Mg2Pt2O12,20,4,14,235.7637186024474,8.872860679167367,11.78818593012237,5.80886323,-9.437781278,-2.883619893499998,1.0,2.035799999999999,1.0
mp-1224833,Gd4Mn2Co2O12,20,4,14,227.2807227324681,7.662180417349195,11.364036136623406,4.59967451,-10.2240782045,-2.8105339522931043,0.0,0.9184,1.0
mp-1224711,Gd4Mn2Sb2O14,22,3,74,282.50159594771554,7.091124147422819,12.84098163398707,4.05781526,-9.830547257727272,-2.914275617084638,0.0,1.6004,1.0
mp-582797,Gd8Mo4O24,36,4,15,475.8633685646335,7.068898196428769,13.218426904573152,2.4272144,-10.772144469444443,-3.140404400555556,0.0,2.1748,1.0
mp-1201421,Gd4Nb4S14O60,82,1,113,1197.9800910234626,3.3398452227162982,14.609513305164178,-0.3356209,-7.761908543536585,-2.25551338054878,0.0,0.029799999999999,1.0
mp-504886,Gd16O24,40,0,206,630.9088590562675,7.632702112600969,15.772721476406687,1.60112538,-12.494637291,-3.895411792000001,1.0,2.9411,1.0
mp-669509,Gd8S12,20,3,62,445.1800211719095,6.127634300946648,22.25900105859548,4.03454538,-24.5140683825,-2.334266813187497,0.0,0.5267000000000001,0.0
mp-4805,Gd2S1O2,5,6,164,85.80620611599412,7.326043273032852,17.16124122319882,2.98780161,-11.956347521999998,-3.519042310499998,0.0,2.019399999999999,1.0
mp-1188175,Gd8Se12,20,3,62,505.5070882187631,7.244907554259087,25.27535441093816,3.5799460400000003,-28.0896133195,-2.143875060937501,1.0,0.449,0.0
mp-13973,Gd2Se1O2,5,6,164,90.2789475510091,7.825644602575555,18.05578951020182,3.31810103,-11.744570188000004,-3.435754594468753,0.0,1.3547,1.0
mp-1194754,Gd12Se6O6F12,36,2,176,610.8746252158362,7.2979149630643825,16.968739589328784,2.66675406,-10.430216706944444,-3.692913088168403,0.0,1.348399999999999,1.0
mp-1205044,Gd8Si16C4N24,52,4,14,627.9093392036154,5.531270416834516,12.075179600069529,5.45658004,-9.741071866923075,-1.347852746730769,0.0,2.0209,0.0
mp-1105966,Gd8Te12,20,3,62,626.1443176199352,7.396977716201284,31.30721588099676,5.12201495,-34.242153842,-1.633017135999995,1.0,0.056499999999999,0.0
mp-542515,Gd4Te8O22,34,4,15,502.858496910372,6.6102993283947,14.789955791481528,4.12607237,-7.8769690958823375,-2.279731501274494,1.0,0.248,1.0
mp-16035,Gd2Te1O2,5,1,139,99.17649819929925,7.9379650736019105,19.835299639859848,4.58523138,-11.526134439999998,-3.287839963333331,0.0,0.772899999999999,1.0
mp-768273,Gd6As10O24,40,0,217,597.8819153535911,5.767767928607265,14.947047883839778,2.23744432,-8.780035457249998,-2.532309885124998,0.0,2.387,1.0
mp-10559,Gd3Au1O6,10,5,2,141.29338689390778,8.987227128426396,14.129338689390778,2.30043783,-10.608926939999998,-3.089925464999999,0.0,1.5063,1.0
mp-1104611,Gd6C2I6,14,4,11,413.1238658562381,6.94945584295437,29.508847561159865,5.1373298,-9.195920867857142,-1.1917680025,0.0,0.061099999999999,0.0
mp-1189617,Gd6Cu6Sb8,20,0,220,451.9315309517655,8.446722423745276,22.59657654758828,6.43070983,-7.9316534,-0.827454231,0.0,0.3003,0.0
mp-568189,Gd6Cu2Ge2Se14,24,2,173,577.4728731498519,6.67499624829497,24.061369714577165,3.730018229999999,-7.852251220833334,-1.56708608845052,0.0,0.7897000000000001,0.0
mp-641576,Gd6Cu2Si2Se14,24,2,173,564.2985710052795,6.568615404214872,23.51244045855332,3.78560046,-7.967154258333335,-1.6151316113671892,0.0,0.844399999999999,0.0
mp-2921,Gd12Ga20O48,80,0,230,988.6948986657218,6.801126125140842,12.358686233321524,5.35452276,-8.770048860500001,-2.932829915874999,1.0,2.9042000000000003,1.0
mp-3594,Gd6Ga2O12,20,3,36,277.6131632618788,7.626027743241513,13.88065816309394,1.98221969,-11.008743098,-3.514320220750001,0.0,2.9661,1.0
mp-1200532,Gd12In4S24,40,3,58,875.4724745719321,5.909906834583522,21.886811864298306,4.33389106,-22.04383076325,-1.945870685937495,1.0,0.9636,0.0
mp-651160,Gd6N2Cl12,20,5,2,485.9655724845568,4.773360880079927,24.29827862422784,1.52726645,-20.050046993,-2.426606997374997,0.0,1.9483,0.0
mp-567291,Gd24Os8O56,88,3,33,1194.4624091849355,8.607835910918157,13.573436468010634,3.77228322,-11.153036269204543,-3.144721616022726,0.0,0.1301,1.0
mp-30137,Gd12Re4O32,48,4,14,617.70409659141,8.451323795856242,12.868835345654375,2.67649331,-11.124586856041669,-3.269572775416667,0.0,1.643199999999998,1.0
mp-17237,Gd6Ru2O14,22,3,63,287.5202868873723,7.910143674629698,13.069103949426015,3.02226574,-10.961211246818182,-3.130438856363636,1.0,0.1389,1.0
mp-1224717,Gd6S2O2F10,20,4,6,298.6937940102336,6.835830490199965,14.93468970051168,3.85233184,-10.0922366245,-4.003841707750001,0.0,1.9623,1.0
mp-1188599,Gd6Sb8Au6,20,0,220,500.7644892986317,10.277567018322674,25.03822446493158,5.98315592,-7.700796348999999,-0.8441945809999991,0.0,0.4978,0.0
mp-505046,Gd6Sb10O24,40,0,217,640.4107937531882,6.599223666848231,16.010269843829704,4.53314858,-8.74163874325,-2.629193494250001,0.0,2.7225,1.0
mp-1191117,Gd6Sb2O14,22,3,63,301.8171267999116,7.763111093357803,13.71896030908689,3.33976705,-10.725657238636362,-3.362648602727271,0.0,2.4705,1.0
mp-1213337,Gd12Sc4S24,40,3,58,859.2057584313796,5.481720541501213,21.48014396078449,4.65624564,-21.285348366,-2.305398591187497,1.0,0.389599999999999,0.0
mp-1104036,Gd6Se4N2O2,14,4,12,303.4192411494195,7.220490903626558,21.672802939244253,2.67840503,-11.47296495,-2.543475174955359,1.0,1.754,1.0
mp-1193201,Gd12Se12N4,28,3,62,669.5974190014309,7.168286120925683,23.91419353576539,2.85097649,-28.13289095642857,-2.096541347276781,1.0,1.0937,0.0
mp-559447,Gd6Se8O24F2,40,2,186,654.167368565744,5.06959893986025,16.3541842141436,0.58725681,-8.33142201875,-2.456352165468749,1.0,2.7821,1.0
mp-560513,Gd6Si4Cl10O12,32,4,12,654.4155945584475,4.065901502759885,20.45048732995149,0.09412832,-8.965306686562501,-3.214715929687502,1.0,2.531,1.0
mp-769809,Gd6Ta2O14,22,3,20,303.5146950783971,8.36732949153669,13.796122503563504,2.33403086,-11.869629019545457,-3.803172537939394,0.0,2.6563,1.0
mp-1194646,Gd12Te8N4O4,28,3,62,681.1296557506997,7.381591244127151,24.32605913395356,4.81461388,-11.158874676428573,-2.33012935404762,0.0,0.844499999999999,1.0
mp-623092,Gd16Au8O36,60,3,60,827.7640900939973,9.36367798524881,13.796068168233289,3.16019328,-9.962731402000005,-2.803804601666671,1.0,1.9649,1.0
mp-554519,Gd4Ti1Se4O4,13,4,12,260.57637197615765,6.733915499892208,20.04433630585828,3.00493493,-10.513718957692308,-2.977144272516025,0.0,0.3285,1.0
mp-1205464,Gd6Co1Cl10,17,5,2,485.6156921306251,4.640069161170649,28.5656289488603,3.34512138,-8.780792406470585,-2.305758397058821,0.0,0.0748,0.0
mp-753421,Gd6W1O12,19,6,148,268.22828800099927,8.167683105215966,14.117278315842066,2.10944212,-11.869812219473683,-3.617686128421053,0.0,2.7937000000000003,1.0
mp-1212867,Gd2Ag2W4O16,24,4,12,325.70233852137,7.757556596287999,13.57093077172375,4.25815203,-9.228652167083334,-2.360401465555556,0.0,2.8117,1.0