material_id,composition,nsites,crystal_system,space_group,volume,density,density_atomic,efermi,energy_per_atom,formation_energy_per_atom,is_gap_direct,band_gap,is_oxide
mp-1182721,As6Xe12F54,72,4,15,1577.9180986118402,3.210709880063364,21.915529147386668,-3.31833002,-3.4486426075,-1.618047420208333,0.0,1.596099999999999,0.0
mp-554379,As4Xe4F44,52,4,14,852.5511457407259,3.234766152062708,16.395214341167808,-4.254799549999999,-3.525059685,-1.5436233136538462,0.0,2.0307,0.0
mp-27750,As4Xe4F28,36,4,14,600.1485850335284,3.754140547632243,16.670794028709125,-4.58537789,-3.906152134444445,-1.894678431388889,0.0,2.8699,0.0
mp-990238,Au1O2F6,9,5,2,117.92107967993644,4.829429021243865,13.102342186659603,-2.71706518,-3.700632622222223,-0.961419482222222,0.0,0.1855,1.0
mp-27253,Au4O6,10,3,43,132.65363346808087,11.06406560179728,13.265363346808089,2.13002525,-4.736182797999999,-0.457853394999998,0.0,0.8689999999999991,1.0
mp-947,Au4S2,6,0,224,146.69522383506134,9.644302410870814,24.449203972510222,1.37662535,-36.51966100166667,-0.118021207604167,1.0,1.9091,0.0
mp-559824,Au4Se6O20,30,3,36,450.2865781859367,5.832579563377046,15.009552606197891,0.00803878,-5.340398208666668,-0.906057643135418,0.0,0.9414,1.0
mp-27441,Au4Se8O22,34,4,15,514.4590160524397,5.718045147783385,15.131147530954108,0.31684066,-5.397815356764702,-0.988463535257348,0.0,1.4326,1.0
mp-17407,Au6F16,22,4,14,319.9161442508859,7.711975752505495,14.541642920494814,-1.44582837,-17.158890413636364,-1.089517318181818,0.0,0.5426,0.0
mp-505366,Au4Br4,8,1,138,234.9855081665895,7.826089358503499,29.37318852082369,0.54207735,-2.85840536125,-0.402991093749999,1.0,1.6885,0.0
mp-27213,Au8Br24,32,4,14,1032.090614009594,5.620605892767032,32.25283168779981,-1.22464175,-2.60317161375,-0.556991212499999,0.0,0.8891,0.0
mp-30159,Au2Br2F12,16,4,4,252.0961517702648,5.149145958463115,15.756009485641547,-2.29077395,-3.345773034375,-1.29653018625,1.0,1.9482,0.0
mp-32780,Au4Cl4,8,1,141,205.9167224305555,7.497045788439865,25.73959030381944,0.79990707,-28.6329015475,-0.264202023750002,1.0,1.674399999999999,0.0
mp-541656,Au4Cl8,12,5,2,319.5461139984167,5.568058520620383,26.62884283320139,-0.44801177,-21.2804825025,-0.317203187500001,0.0,0.897899999999999,0.0
mp-27647,Au4Cl12,16,4,14,445.8713988311508,4.518647830236056,27.866962426946927,-1.60996121,-17.58379035375,-0.323221143125,0.0,1.3606,0.0
mp-27265,Au6Cl6O6,18,6,148,350.25606761616274,7.066419817647017,19.45867042312016,0.15713903,-3.955443943888888,-0.598648675555555,0.0,0.9762,1.0
mp-942,Au6F18,24,2,178,365.9296798512416,6.914663849512653,15.247069993801732,-1.08446019,-16.0927427425,-1.101981742499999,0.0,1.5542,0.0
mp-30103,Au8F40,48,3,62,654.3267442146367,5.927419479742083,13.631807171138265,-3.14238685,-11.900904966874998,-0.8650549835416661,0.0,0.7042,0.0
mp-27725,Au4I4,8,1,138,276.1004553639798,7.791374513900841,34.512556920497474,1.29937864,-2.66481371375,-0.265866406249999,1.0,2.0942,0.0
mp-560021,Au4S12O36F12,64,4,14,1077.7338291456067,3.045492854687726,16.839591080400105,-2.02011065,-5.7690925725,-1.6464571429687491,0.0,1.4998,1.0
mp-28192,Au4S4Cl20,28,4,14,798.0758599252629,3.381489702060268,28.502709283045103,-1.08478462,-3.068769297857142,-0.6894899310714281,0.0,1.7772,0.0
mp-556587,Au4S4Cl28,36,4,14,1018.7604095042784,3.111285052358738,28.29890026400773,-0.82209708,-2.980125653611114,-0.7187877461111141,1.0,1.8191,0.0
mp-30003,Au8S8O32,48,3,61,720.3191186426213,5.404120148244996,15.006648305054611,-0.55762267,-5.847149767291666,-1.313135502708332,0.0,1.600699999999999,1.0
mp-2793,Au2Se2,4,4,12,99.9053776221216,9.172416104975438,24.9763444055304,1.75157638,-32.588479265,-0.140219074531245,0.0,0.262799999999999,0.0
mp-27199,Au8Se8Br8,24,3,62,648.5595920835756,7.288404249999777,27.02331633681565,1.333577,-3.29310831125,-0.490861640364582,0.0,0.6302999999999991,0.0
mp-28372,Au4Se4Cl28,36,4,14,1038.143031264055,3.353235389828396,28.83730642400153,-1.21594956,-12.352763344722222,-0.356808604340276,1.0,1.7274,0.0
mp-560549,Au4Se4Cl4O12,24,5,2,484.4908108876168,4.926911402086227,20.187117120317367,-0.29123757,-4.82600406625,-0.915634184140625,0.0,1.3674,1.0
mp-644828,Au4Xe8F68,80,3,62,1334.147707746949,3.895862590380789,16.67684634683686,-3.15350247,-2.71258195575,-0.91849592,0.0,1.3385,0.0
mp-1199051,B40H52I4,96,4,14,1208.03895616826,1.36422460635338,12.58373912675271,-1.803370409999999,-4.887966745520834,-0.202337827725694,1.0,2.5463,0.0
mp-1199941,B40H56S4,100,3,19,1196.0261505585818,0.8568314196008021,11.960261505585818,0.37997286,-4.9633726177,-0.224788320966666,0.0,2.5518,0.0
mp-1196917,B4Mo2Pb12O24,42,3,63,693.0149119258148,7.441138601435116,16.500355045852732,3.25996041,-7.014248184047617,-1.973493511111109,1.0,2.4454,1.0
mp-662553,B16Pb16S40,72,1,92,1474.043157062704,5.374374480177234,20.47282162587089,5.44605679,-5.375388840555557,-0.7669582273148151,0.0,1.7364000000000002,0.0
mp-1203040,B8Pb16O28,52,3,41,892.8861250114036,7.1594005574711534,17.17088701945007,5.33179666,-6.880659164230769,-2.046420790641024,1.0,2.454499999999999,1.0
mp-553930,B8Pb24S4O48,84,3,62,1441.6100719177298,6.859949500998456,17.16202466568726,3.86936673,-6.699135933928571,-1.9777760487301568,1.0,2.9511000000000003,1.0
mp-1199451,B100S150,250,1,88,4055.021688231164,2.4123142396181843,16.220086752924658,4.30791176,-5.88899102756,-0.7342185787266671,1.0,2.526399999999999,0.0
mp-1229254,B6Pb20Br6O26,58,4,9,1206.2595178762904,7.026553508791071,20.7975778944188,5.07891672,-6.22259956586207,-1.864014094051723,0.0,2.435399999999999,1.0
mp-1195239,B12Pb24Br4O40,80,3,57,1432.797630071289,7.025691219263534,17.909970375891113,2.77803096,-6.707842969374999,-2.036312253499999,1.0,2.8245,1.0
mp-560833,B12Pb24Cl4O40,80,3,57,1346.954034392527,7.254251437601931,16.83692542990659,3.68324069,-6.741066207125004,-2.058955678000004,1.0,2.9337,1.0
mp-624,B12As2,14,6,166,129.317419464123,3.589969113026614,9.236958533151642,4.53115495,-8.607139822857143,-0.209188941071428,1.0,2.6454,0.0
mp-1346,B12O2,14,6,166,102.43459585845004,2.621773527017992,7.316756847032146,5.28513093,-7.237317123571429,-0.8052726050000011,1.0,1.856399999999999,1.0
mp-28395,B12P2,14,6,166,122.07265749137632,2.6073925513727563,8.71947553509831,5.21319273,-7.909109577857143,-0.326223649710885,0.0,2.4757,0.0
mp-29654,B72H88,160,3,56,1455.26419177524,0.9893997412867692,9.09540119859525,-1.810960039999999,-5.3042644603125,-0.09809325075,1.0,2.9653,0.0
mp-622018,B1As5Pb6O20,32,1,81,553.9456652490212,5.841255292602802,17.310802039031913,1.90185,-6.5470149971875,-1.819980404895833,0.0,2.9414,1.0
mp-557856,B2Cl2O4F8,16,4,9,233.27003735638905,2.196156888650325,14.579377334774316,-3.02461556,-5.207725988125,-1.947817728020833,0.0,1.9592,1.0
mp-23189,B2I6,8,2,176,343.3017052728368,3.787581409278581,42.9127131591046,-0.6082331,-3.160202255000001,-0.347344851041667,0.0,2.6901,0.0
mp-4674,B4N4F32,40,1,113,475.19314829637045,2.471344439023755,11.879828707409262,-2.83626763,-4.785542488,-1.7526936364166672,1.0,2.9979,0.0
mp-1479,B1P1,2,0,216,23.272944325085422,2.981368782582196,11.636472162542711,7.5307309,-8.65751955,-0.483304295238095,0.0,1.243499999999999,0.0
mp-567433,B4P4I12Br12,32,3,62,1303.61892876206,3.374071476394194,40.738091523814376,0.57944943,-3.357736324375,-0.66051848110119,1.0,1.9673,0.0
mp-1201622,B4P4Br24,32,3,62,1017.1433025089384,3.403601081658267,31.78572820340433,1.21143676,-3.611538976562499,-0.87197091328869,1.0,2.7247,0.0
mp-27724,B1P1S4,6,3,23,141.5693693903541,1.994541415192164,23.59489489839235,0.37956446,-5.41944845,-0.6447311889682521,0.0,2.276,0.0
mp-1201413,B4Pb28Br12O28,72,4,15,1626.734620148762,7.402369027342132,22.593536390955027,3.13832462,-5.692399177916666,-1.680483183425925,0.0,1.9254,1.0
mp-540668,B16S32,48,4,14,1081.3151571176138,1.841349691563198,22.527399106616954,0.31678882,-5.713698593541667,-0.728328291597221,0.0,2.5677,0.0
mp-1228703,B2Sb2Pb2S8,14,4,4,352.5251328192496,4.409238874201632,25.1803666299464,5.18758438,-5.138257249285714,-0.6990460563095221,0.0,2.1522,0.0
mp-1214789,B8Se16,24,4,14,621.8055623394856,3.604784958080036,25.90856509747857,0.31636213,-12.184781938333332,-0.194957051874998,0.0,1.771199999999999,0.0
mp-27286,Ba4Ag24O16,44,3,52,778.1146417626792,7.243269557496879,17.684423676424526,1.17088897,-4.354688140227273,-0.830284046590908,0.0,0.9577999999999992,1.0
mp-18501,Ba4Ag8Te8,20,3,62,609.8394280098713,6.624990724388473,30.491971400493565,3.75838072,-3.731018303499996,-0.952725886833328,1.0,0.673299999999999,0.0
mp-28505,Ba2Al4Te8,14,1,125,508.7963699644138,4.580157621476996,36.34259785460099,3.09254507,-4.280968996428569,-1.140490400238092,1.0,1.5444,0.0
mp-14501,Ba2As12Pt8,22,4,15,444.418826415228,10.21683416150003,20.20085574614673,5.33771477,-5.587025595909102,-0.657548921818193,0.0,0.1901,0.0
mp-1105233,Ba2As4O12,18,4,15,257.6885207801976,4.938234007396964,14.316028932233198,1.15069085,-6.738651304444444,-2.188986189444444,1.0,2.7763,1.0
mp-28719,Ba2Au4F16,22,1,82,357.78594413808605,6.342110180669233,16.262997460822092,-2.19737877,-4.371535524545451,-2.209939348181815,1.0,2.4882,0.0
mp-558168,Ba4Au8F48,60,0,221,1145.4778200532364,4.402527155758056,19.09129700088728,-2.83226628,-3.882965274166666,-1.7874341114999992,1.0,1.515899999999999,0.0
mp-9297,Ba2Au4O8,14,1,88,217.3158006240782,9.09688780849218,15.522557187434158,2.20246243,-5.482577204285714,-1.445636781428571,0.0,1.1785,1.0
mp-30126,Ba2B4S8,14,4,9,305.1229717227263,3.126095436776956,21.79449798019473,2.26586765,-5.820213586428571,-1.272899764761903,0.0,2.7453000000000003,0.0
mp-570823,Ba2B4Se12,18,3,64,462.8980770193898,4.539392425453564,25.716559834410543,2.28997205,-4.918517670555556,-0.8903812985995351,0.0,1.7096,0.0
mp-12927,Ba2Be4N4,10,1,140,135.9728937457125,4.478603722728969,13.59728937457125,3.02258281,-6.322834987999999,-1.107963756,0.0,1.178999999999999,0.0
mp-1228976,Ba9Bi18S36,63,2,174,1732.527266114362,5.8963114935600895,27.500432795466065,3.72270251,-4.927826205873013,-1.177471658730156,0.0,1.2751,0.0
mp-8281,Ba1Cd2As2,5,6,164,139.70118798705417,6.085725269374697,27.940237597410835,2.63466604,-3.250679454000001,-0.614831377000001,1.0,0.157599999999999,0.0
mp-8279,Ba1Cd2P2,5,6,164,129.8405316603431,5.423798232384745,25.96810633206862,2.93286921,-3.499186951999999,-0.5651984778571411,1.0,0.6835999999999991,0.0
mp-7374,Ba2Cu4O4,10,1,141,166.64280980517356,5.907405636175781,16.664280980517354,3.15895037,-5.619250707999994,-1.616588649999994,1.0,1.386299999999999,1.0
mp-5970,Ba4Cu8S8,20,3,62,388.01353530653097,5.62422080829076,19.400676765326548,5.2748822,-4.805018248999994,-1.126196765999993,1.0,0.9028,0.0
mp-1193410,Ba4Dy8S16,28,3,62,722.5967329426176,5.428714197100985,25.80702617652205,2.53993901,-6.37845582642857,-2.420003788333329,1.0,1.7407,0.0
mp-1193797,Ba4Dy8Se16,28,3,62,815.3375866760265,6.33934568922243,29.1191995241438,2.26079694,-5.831290778571431,-2.239951934672619,1.0,1.3765,0.0
mp-17927,Ba4Dy8Te16,28,3,62,1006.1217018165838,6.421693048545647,35.93291792202085,3.74923599,-5.1686960525,-1.778846113928569,1.0,1.2938,0.0
mp-1192439,Ba4Er8S16,28,3,62,707.9648872764485,5.630210280035412,25.28446025987316,2.62481794,-6.368241679285715,-2.424262989285713,1.0,1.721299999999999,0.0
mp-1192805,Ba4Er8Se16,28,3,62,800.2671498703946,6.537725382763253,28.58096963822837,2.26250938,-5.8137686575,-2.236903161696428,1.0,1.3665,0.0
mp-17928,Ba4Er8Te16,28,3,62,989.6662229073892,6.592348643286566,35.34522224669247,3.87877114,-5.143207912499998,-1.767831322023807,1.0,1.310799999999999,0.0
mp-568396,Ba8Fe16Br64,88,3,61,3458.185642674774,3.412129521716593,39.29756412130425,-0.86295071,-4.284835919431818,-1.379873224886363,1.0,0.9257,0.0
mp-19154,Ba4Fe8O16,28,3,36,442.3569297073226,4.70003236580985,15.79846177526152,1.36316648,-7.610649461428571,-2.089097835714285,0.0,1.7417999999999991,1.0
mp-1183302,Ba4Ga8As8,20,4,14,528.995052075059,5.356669131520892,26.44975260375295,2.85611178,-4.109172771,-0.6460903610000001,0.0,1.3062,0.0
mp-1105728,Ba4Ga8P8,20,4,14,491.7333049330642,4.575314766103028,24.58666524665321,3.4408538,-4.416588002999999,-0.655365195857142,0.0,1.427699999999999,0.0
mp-849286,Ba12Ga24S48,84,0,205,2083.8769584043566,3.873010546326264,24.80805902862329,1.857020659999999,-4.965200289642858,-1.461113824642858,1.0,2.9088000000000003,0.0
mp-29938,Ba8Ga16Sb16,40,3,62,1193.6926876094262,5.790212918594685,29.84231719023565,4.13145377,-3.8515572690000033,-0.604923376000002,0.0,0.0277,0.0
mp-7841,Ba2Ga4Se8,14,3,66,414.71996409700495,4.745645848121506,29.622854578357497,1.06519527,-4.500037020000001,-1.36306374919643,0.0,1.8578,0.0
mp-38117,Ba1Ga2Te4,7,1,97,252.6302597076344,5.174089280458516,36.09003710109062,2.75982205,-3.961316497142856,-1.025832131666665,0.0,0.5291,0.0
mp-1194410,Ba4Gd8Se16,28,3,62,836.900590635041,6.092676037770971,29.88930680839432,2.10508955,-8.547751055714283,-2.254198865624996,0.0,1.225499999999999,0.0
mp-1182773,Ba4Gd8Te16,28,3,62,1029.5664866520613,6.207721580499715,36.77023166614504,3.52965325,-7.901538467857144,-1.809475183095239,0.0,0.7582000000000001,0.0
mp-27810,Ba4Ge8As8,20,1,105,541.2744345971146,5.306738360872226,27.06372172985573,3.97288774,-4.598309642499999,-0.497254499499999,0.0,0.028599999999999,0.0
mp-27809,Ba4Ge8P8,20,1,105,504.1517215005284,4.539476695411165,25.20758607502642,3.61233258,-4.9021031265,-0.5029075863571421,0.0,0.5134000000000001,0.0
mp-1193583,Ba4Ho8S16,28,3,62,715.7224363822448,5.525963798662894,25.561515585080173,2.58038513,-6.37212853892857,-2.41958966178571,1.0,1.730699999999999,0.0
mp-17273,Ba4Ho8Te16,28,3,62,997.6828454125784,6.508370770167922,35.63153019330637,3.75190239,-5.154795434642859,-1.77085865702381,0.0,0.785,0.0
mp-1105940,Ba4In8P8,20,4,11,565.9775007321595,5.033575930184728,28.29887503660797,5.09522322,-4.21085724,-0.557203344523808,0.0,0.250899999999999,0.0
mp-21943,Ba8In16S32,56,3,70,1606.1243984397618,4.096007203315982,28.68079282928146,2.27614547,-4.790444660535714,-1.363193132440475,1.0,2.2042,0.0
mp-21766,Ba8In16Se32,56,3,70,1850.4140633883485,4.901912836591854,33.04310827479193,1.74154071,-4.3622841225,-1.30214578860119,1.0,1.572,0.0
mp-21183,Ba2In4Te8,14,3,66,549.6389222356725,5.30128227150803,39.25992301683375,3.22721762,-3.876337722142856,-1.017688293571426,0.0,0.9642,0.0
mp-984052,Ba4Lu8S16,28,3,62,688.1810468060976,5.940859147785773,24.5778945287892,2.65334565,-6.346109682142854,-2.41528280833333,1.0,1.7477,0.0
mp-1192674,Ba4Lu8Se16,28,3,62,779.544104654393,6.842874325971653,27.84086088051404,2.29087516,-5.78116819714286,-2.217454517529764,1.0,1.3795,0.0
mp-1192634,Ba4Lu8Te16,28,3,62,967.9962629170028,6.845708518464667,34.571295104178674,4.6097569400000005,-5.100014021071429,-1.737789246785714,1.0,0.7892999999999991,0.0
mp-8280,Ba1Mg2As2,5,6,164,135.8389929674064,4.104683991764778,27.16779859348128,2.65369558,-3.832610436000001,-0.928578429000002,0.0,1.0689,0.0
mp-29209,Ba1Mg2Bi2,5,6,164,173.13858795412915,5.791868242563416,34.62771759082583,3.27667337,-3.184069918,-0.5920732000000011,1.0,0.396799999999999,0.0
mp-8278,Ba1Mg2P2,5,6,164,126.38018259497746,3.257013304267086,25.27603651899549,2.98038428,-4.12024428,-0.918071875857142,0.0,1.1366,0.0
mp-9567,Ba1Mg2Sb2,5,6,164,163.63463549492457,4.358063461124373,32.72692709898492,3.47476502,-3.521034273999999,-0.8334507839999981,0.0,0.8466,0.0
mp-1029505,Ba12Mo24N48,84,0,205,1406.47712582604,5.457855769669092,16.743775307452857,4.59276013,-8.815495472142857,-0.6778688807142861,0.0,0.0433,0.0
mp-1029502,Ba12Nb24N48,84,0,205,1426.040189882296,5.298203151037149,16.976668927170188,4.15922549,-9.0298034675,-1.104846896071428,0.0,2.1524,0.0
mp-866306,Ba4Nd8S16,28,3,62,778.6729740204366,4.726279564678873,27.80974907215845,2.78307715,-6.376378457857141,-2.375134447142854,1.0,1.6426,0.0
mp-1104130,Ba2P8Au4,14,3,70,328.27351927137954,6.628075170079297,23.44810851938425,4.63759405,-4.777914247142852,-0.473823812653054,0.0,0.190999999999999,0.0
mp-28967,Ba2Pd4S8,14,4,11,316.34140399923814,5.022717317257348,22.595814571374152,3.16054397,-5.242961645000002,-1.124079240714286,0.0,0.7791999999999991,0.0
mp-9127,Ba1Sb2O6,9,6,162,142.98032483777925,5.537944435702883,15.88670275975325,1.92110029,-6.806295256666668,-2.376879317777779,0.0,2.8606,1.0
mp-28129,Ba8Sb16S32,56,4,14,1539.5412713964795,4.392955633142289,27.49180841779428,3.82856717,-4.93855359017857,-1.119922777321425,0.0,1.5472,0.0
mp-4727,Ba8Sb16Se32,56,4,14,1739.424009106401,5.320731343873672,31.06114301975716,3.2878056,-4.517261047857143,-1.065743429196428,0.0,1.1026999999999991,0.0
mp-17501,Ba4Sc8Te16,28,3,62,914.0044487735436,5.360490688799092,32.64301602762655,4.68732999,-5.521752495000003,-1.642161534523812,1.0,0.5092999999999991,0.0
mp-1194376,Ba4Sm8S16,28,3,62,758.484207475464,4.959232574236378,27.088721695552287,2.36256696,-6.384296911071431,-2.39721327107143,1.0,1.759,0.0
mp-1193757,Ba4Sm8Se16,28,3,62,853.1175320507592,5.869572565424152,30.46848328752712,2.04067517,-5.856283884999998,-2.236313439196427,1.0,1.4344,0.0
mp-17786,Ba4Sm8Te16,28,3,62,1048.678929990815,6.007304051063043,37.4528189282434,3.58761432,-5.213629962500001,-1.7951484220238112,0.0,0.7957000000000001,0.0
mp-1029616,Ba12Ta24N48,84,0,205,1448.3069495959514,7.6393771611716765,17.241749399951804,4.67646661,-9.7097841225,-1.280363978880952,0.0,2.658,0.0
mp-1193223,Ba4Tb8S16,28,3,62,730.5026411061918,5.304956008428256,26.089380039506853,2.54056307,-6.384383673214286,-2.420363607976189,1.0,1.7379,0.0
mp-17153,Ba4Tb8Te16,28,3,62,1015.4809446590862,6.315744283024655,36.26717659496736,3.82479239,-5.18236612285714,-1.786948157142854,1.0,1.2848,0.0
mp-1193579,Ba4Tm8S16,28,3,62,701.2234122019127,5.716074406100827,25.04369329292545,2.61216412,-6.340953828928572,-2.421322947500002,1.0,1.7438999999999991,0.0
mp-1193169,Ba4Tm8Se16,28,3,62,793.4836179284227,6.621662694958519,28.33870064030081,2.27284494,-5.782077959642858,-2.229560272410717,1.0,1.380399999999999,0.0
mp-18196,Ba4Tm8Te16,28,3,62,981.5586898885284,6.669472607727202,35.05566749601887,3.85972474,-5.106528029642858,-1.755499247738097,1.0,1.3203,0.0
mp-1029918,Ba12V24N48,84,0,205,1307.930173955387,4.49796709390414,15.570597308992706,3.64480799,-8.747864496309523,-1.113593344880951,0.0,1.562399999999999,0.0
mp-29036,Ba4Y8S16,28,3,62,725.9437568605377,4.056958167744675,25.926562745019204,2.69894626,-6.913243349285715,-2.4145867478571432,1.0,1.7564000000000002,0.0
mp-1193099,Ba4Y8Se16,28,3,62,818.8175984044426,5.118428248655952,29.243485657301523,2.27395476,-6.372303429642857,-2.240760022410714,1.0,1.4872,0.0
mp-17872,Ba4Y8Te16,28,3,62,1010.3383372861468,5.427248325634622,36.083512045933816,3.81008631,-5.7178174039285725,-1.787762902023809,1.0,1.293499999999999,0.0
mp-7427,Ba4Zn8As8,20,3,62,467.19634427852776,5.942561357577934,23.359817213926387,3.50575622,-3.4289543555,-0.6732129104999991,1.0,0.2974,0.0
mp-1228784,Ba10I1Br4N5,20,6,166,617.3763433846691,5.08300417534274,30.868817169233456,2.53266621,-4.81436123,-1.366714386,1.0,1.125899999999999,0.0
mp-1197065,Ba13Si6Sn8As22,49,1,121,1475.5481693623278,5.122372626479346,30.11322794616996,3.78134911,-4.6021506559183685,-0.677296513979593,0.0,0.7270000000000001,0.0
mp-530714,Ba56Al4Sb44,104,1,142,4215.460322044558,5.182237728287287,40.53327232735152,3.61815167,-4.03529152375,-1.111051576442307,0.0,0.7923999999999991,0.0
mp-620609,Ba30Zr28Se84,142,6,167,4240.448496875847,5.210847801987258,29.862313358280613,2.80252441,-6.100547098380281,-1.94166378878081,1.0,0.2641,0.0
mp-30001,Ba32Nb10N38,80,5,2,1753.9822152091183,5.543816440321997,21.92477769011398,2.57793927,-7.008725390249999,-1.017790355374999,0.0,1.777,0.0
mp-1197806,Ba16Re6O37,59,4,12,996.7652806491824,6.507866948841855,16.894326790664106,3.43697739,-7.681543673389831,-2.792275173898305,0.0,1.511199999999999,1.0
mp-1229199,Ba17Sr1Sm12Cl68,98,1,83,2770.9127840917545,3.977570492885069,28.274620245834228,4.97912636,-5.012513888163266,-2.80191239744898,1.0,0.006199999999999,0.0
mp-644875,Ba8In20As20,48,3,62,1395.692545360627,5.821980764906506,29.0769280283464,4.7945893900000005,-3.939258775208335,-0.5238895036111121,1.0,0.2213,0.0