material_id,composition,nsites,crystal_system,space_group,volume,density,density_atomic,efermi,energy_per_atom,formation_energy_per_atom,is_gap_direct,band_gap,is_oxide
mp-22661,In2Ag2P4S12,20,6,163,451.7879514326842,3.506585454017093,22.58939757163421,2.94608123,-11.440607187,-0.425745722782738,0.0,1.148299999999999,0.0
mp-20902,In2Ag2P4Se12,20,6,163,545.5405834723116,4.616860577266934,27.27702917361558,2.61853072,-4.2438666755,-0.503013941668154,0.0,0.6040999999999991,0.0
mp-2761520,In2Ag6F12,20,4,14,295.61218610612,6.206127097553135,14.780609305306,2.13463256,-12.3377821155,-1.797543163999999,1.0,1.1389,0.0
mp-1223893,In1Ag1Ge1Se4,7,1,82,192.92190197798288,5.260498372037042,27.56027171114041,2.43161404,-4.081447072857143,-0.6230491889583321,1.0,0.8570000000000001,0.0
mp-20329,In2Ag2O4,8,2,194,118.28147641161964,7.150982639162847,14.785184551452456,3.44709786,-5.26692541874999,-1.392417060833322,0.0,0.2347,1.0
mp-1204248,In4Ag4P8O28,44,4,14,593.7018331444738,4.437370968391073,13.493223480556225,4.65750744,-6.915850241363636,-2.2732333770562763,1.0,2.4499,1.0
mp-19833,In2Ag2S4,8,1,122,196.588378662141,4.845347505025015,24.573547332767625,3.05066712,-15.5602438475,-0.559127425156249,1.0,0.377299999999999,0.0
mp-1224048,In2Ag2Sn2S8,14,3,74,327.2584589094085,4.766156209192377,23.37560420781489,4.80575482,-4.431461025,-0.6935865183333311,0.0,0.9214999999999992,0.0
mp-22386,In2Ag2Te4,8,1,122,272.3712401531629,5.826963992547697,34.04640501914536,3.41832602,-24.06834301375,-0.376113977500001,1.0,0.064999999999999,0.0
mp-1195503,In8As8H32O48,96,3,61,1042.3015928523698,3.693139790024863,10.857308258878852,3.21776984,-5.788600531041666,-1.563789859305555,1.0,2.8192,1.0
mp-1188700,In2As2H4O10,18,5,2,206.74603040131308,4.365313409979446,11.485890577850729,1.64930617,-5.980505858888889,-1.651679839074074,0.0,2.1239,1.0
mp-7027,In2B2O6,10,6,167,105.35335310154868,5.473290410538121,10.535335310154869,3.9195389,-7.315081527000001,-2.458591821166667,0.0,2.6556,1.0
mp-559521,In1Bi2S4Cl1,8,4,12,193.0865795780102,5.98980957658576,24.135822447251275,4.23797365,-4.459365861249999,-0.8417129320833321,0.0,1.5805,0.0
mp-22870,In2Br2,4,3,63,130.0873263179074,4.971175859765129,32.52183157947685,2.65051316,-3.132871465000001,-0.934811325833333,0.0,1.257099999999999,0.0
mp-568108,In8Br16,24,3,52,873.7802042419324,4.175212022338988,36.40750851008052,-0.01985566,-3.163414759999999,-1.152392488888888,0.0,2.4137,0.0
mp-570219,In2Br6,8,4,12,263.1236339364951,4.47478553312914,32.890454242061885,-0.3502847,-3.15653166375,-1.239028326666666,0.0,2.489,0.0
mp-27703,In2Br2O2,6,3,59,132.47808183629036,5.282551075898691,22.07968030604839,1.66792439,-4.779563303333333,-1.664869542222221,0.0,1.9948,1.0
mp-23276,In32Cl32,64,0,198,1875.7302000224524,4.257002267367651,29.30828437535082,2.73114401,-15.276190633125,-0.910675994374999,1.0,2.2049,0.0
mp-27702,In2Cl2O2,6,3,59,122.27770773078213,4.515925264596758,20.37961795513036,1.51759804,-4.99980449,-1.814578640555555,0.0,2.364499999999999,1.0
mp-1077901,In1Co3Sn1S2,7,6,166,111.22495706900288,7.083440408508427,15.889279581286123,7.597126,-5.704169171428572,-0.497638472380951,0.0,0.196699999999999,0.0
mp-1223929,In1Cu1Ge1S4,7,1,82,160.36757471353764,3.927119866219554,22.909653530505377,3.81117418,-4.706669431428572,-0.701691354523808,1.0,1.1346,0.0
mp-1224210,In1Cu1Ge1Se4,7,1,82,187.2500371630063,5.02678995918389,26.7500053090009,2.93671323,-4.2672448,-0.6293799172916661,1.0,0.6493000000000001,0.0
mp-541283,In4Ga4Br16,24,4,13,850.407042216947,3.937749113729871,35.43362675903946,-0.6641087800000001,-3.242094248333333,-1.18625159736111,0.0,2.9288,0.0
mp-504951,In6Ga6S18,30,2,169,718.6195971699804,3.892238095678459,23.95398657233268,2.29061804,-12.404833678,-0.7795609626874991,0.0,2.0936999999999992,0.0
mp-504952,In6Ga6Se18,30,2,169,819.5928046815503,5.122929557129563,27.31976015605168,1.91578643,-16.09676530133333,-0.7055558967708331,1.0,1.3166,0.0
mp-571341,In4Hg24As16Cl28,72,0,205,1925.804325678463,6.436632293467907,26.747282301089765,1.05652216,-2.7490586344444443,-0.7358644289814831,1.0,1.4202,0.0
mp-1203885,In4Hg24Sb16Br28,72,0,205,2393.1789616022,6.563186402367279,33.23859668891944,1.04579428,-2.453320093472222,-0.6426625005092611,1.0,1.127,0.0
mp-1196151,In2Hg14S12Cl10,38,5,2,1033.0874529048892,6.071313815649804,27.18651191854972,2.29734081,-2.800257489736842,-0.747639099692984,0.0,1.4549,0.0
mp-23202,In2I2,4,3,63,151.119578469854,5.312211809671205,37.7798946174635,3.52492482,-2.794013837499999,-0.6524206583333321,1.0,1.3412,0.0
mp-29312,In8I16,24,3,52,1072.3719431102218,4.566471092825289,44.68216429625924,1.54184846,-2.699471808333333,-0.763738817222221,0.0,1.888599999999999,0.0
mp-567789,In4I12,16,4,14,749.4843069014399,4.39154900218926,46.84276918134,0.22863577,-2.613816165625,-0.7810132685416661,1.0,2.2833,0.0
mp-1212006,In2Ni2Ag4F14,22,3,74,327.71335916013777,5.292395254968391,14.896061780006262,0.48297318,-4.620616516818182,-2.109511752727272,0.0,1.4768,0.0
mp-27175,In4O4F4,12,3,70,152.04092763398808,6.544948070996765,12.67007730283234,3.89432147,-5.582708000000001,-2.375712292222223,1.0,1.330699999999999,1.0
mp-20351,In1P1,2,0,216,51.44801613145897,4.705583122405697,25.724008065729485,4.68757835,-16.148606945,-0.358273598988095,1.0,0.4546,0.0
mp-7566,In2P2O8,12,3,63,145.8287101605789,4.777707091758406,12.152392513381576,3.2458172,-7.132522599999999,-2.471440718551586,0.0,2.3482,1.0
mp-20790,In1P1S4,6,1,82,148.90520918656284,3.056129866493824,24.81753486442714,2.54884712,-11.104074381666663,-0.483963878204363,0.0,2.3185,0.0
mp-19795,In4S4,8,3,58,198.2791235088956,4.920436511985393,24.784890438611946,4.57303829,-15.98967065,-0.6828759189062491,0.0,1.3508,0.0
mp-1196350,In4Sb4P16O56,80,3,33,1076.7839814855342,3.605277930348394,13.459799768569178,4.39399109,-7.346482090749999,-2.455405933011904,1.0,2.9879,1.0
mp-559864,In2Sb4S8Br2,16,4,12,413.6061588860393,4.548765447983686,25.85038493037745,3.82493696,-4.385154745,-0.734209616458331,0.0,1.5308000000000002,0.0
mp-556541,In2Sb4S8Cl2,16,4,12,408.72293024780345,4.241925353843078,25.545183140487715,4.01798084,-4.463126224374999,-0.7857315627083311,0.0,1.552499999999998,0.0
mp-1224667,In2Sb6P12O48,68,4,7,896.438734915583,3.889710155855703,13.182922572287984,4.31789421,-7.272281607058823,-2.3784556442507,1.0,2.5289,1.0
mp-1223746,In1Sb3Pb4O13,21,6,160,311.0721684667016,8.0973346129238,14.812960403176268,5.19690494,-6.328405091428571,-1.8369641957936511,0.0,1.5391,1.0
mp-1212067,In4Sb4O16,24,4,14,288.00607787197475,6.932041572936582,12.000253244665616,5.1518326,-6.398555725833333,-1.951885891944443,1.0,0.9405999999999992,1.0
mp-21365,In4Sb4S12,20,3,62,490.59485125450334,4.505408610764415,24.52974256272517,4.24471484,-14.999579464000002,-0.5215987926875011,0.0,1.476099999999999,0.0
mp-20485,In4Se4,8,2,194,246.5612158752844,5.220219864755624,30.820151984410547,3.36411748,-19.1218018175,-0.676726512031248,1.0,0.459,0.0
mp-505357,In16Se16I16,48,1,88,1946.0997315004192,4.378034780350969,40.54374440625873,1.25105315,-3.412301513125,-0.8192689011284711,1.0,1.6754,0.0
mp-567931,In2Si2Te6,10,6,162,328.8118261873687,5.309731157302806,32.88118261873687,4.4247575900000005,-21.827001367,-0.306195786,0.0,0.4816,0.0
mp-29236,In4Te4Br4,12,4,14,441.8291853910968,4.845567388680977,36.81909878259141,1.677117529999999,-3.401741207499997,-0.888599150277774,1.0,1.735599999999999,0.0
mp-504630,In8Te8Cl8,24,4,14,783.5841971746495,4.710821403891745,32.64934154894373,2.43496978,-18.87422535625,-0.8248074937500001,1.0,1.6633,0.0
mp-29234,In4Te4I4,12,4,14,501.8935216293466,4.887685241421512,41.824460135778885,2.01067548,-3.170937035833333,-0.695439618611109,1.0,1.7076,0.0
mp-680058,In8Te8I56,72,3,33,3386.538631397778,4.43556935253438,47.03525876941358,1.77396367,-2.425226732916668,-0.5840525171759271,0.0,1.7538,0.0
mp-1195597,Ir8Se36Br24,68,1,88,2070.5481471224944,5.050866250885382,30.44923745768374,0.90881621,-4.147940325441176,-0.6796020390349271,0.0,1.519299999999999,0.0
mp-1196619,Ir8Se36Cl24,68,1,88,1886.4569763223133,4.604694905304659,27.74201435768108,1.1080446,-16.294481459558824,-0.3864001440625,0.0,1.5989,0.0
mp-1190246,Ir4Pb4O14,22,0,227,272.95408154215966,11.082219085189632,12.407003706461802,6.0598042,-6.8561838804545445,-1.425466649999997,0.0,0.152,1.0
mp-1188655,Ir8S12,20,3,60,317.5501599488466,10.053255601186986,15.877507997442333,7.81278112,-26.2522462905,-0.487505461187498,0.0,0.7821,0.0
mp-27397,Ir2Br6,8,4,12,220.1187053301764,6.516801717706128,27.51483816627205,1.37217708,-4.145793127499999,-0.708474681249999,0.0,1.5604,0.0
mp-568208,Ir4Cl12,16,3,70,371.0700866400312,5.344511780386393,23.19188041500195,2.03031683,-18.328934545625,-0.624767009999999,0.0,1.9582,0.0
mp-2437,Ir2F6,8,6,167,97.35761479811586,8.501165743894461,12.169701849764484,2.27501168,-16.92002784625,-1.485668521250001,0.0,1.141099999999999,0.0
mp-560553,Ir4F24,28,3,62,389.7484318339272,5.218436720033019,13.919586851211688,-2.89563611,-11.6932091175,-1.533848953214284,0.0,0.7714000000000001,0.0
mp-1025442,Ir2I6,8,4,12,279.59275108808504,6.80542198998877,34.94909388601063,3.11606414,-3.79358769625,-0.44096969,0.0,1.3846999999999992,0.0
mp-2833,Ir8S16,24,3,62,405.3257929452992,8.401620928439797,16.888574706054133,7.0936233,-23.31188797208333,-0.502104100624995,0.0,0.5371,0.0
mp-28211,Ir4S12Cl44,60,4,14,1638.0176088871094,2.750889597216154,27.300293481451824,0.02006494,-3.5213107155,-0.7488118033333331,0.0,1.8369,0.0
mp-1361,Ir8Se16,24,3,62,476.9405361681865,9.752430302247925,19.872522340341103,5.70876651,-27.41809989458333,-0.423941923958333,0.0,0.0517,0.0
mp-752629,K4Co8O16,28,3,59,340.7499251449973,4.307164729492065,12.169640183749904,2.08314511,-6.4796888828571415,-1.452539285321426,0.0,0.2643,1.0
mp-1192374,K4Ge12As12,28,3,62,744.7769294620688,4.296694097415106,26.59917605221674,3.31546458,-4.3393342575,-0.194931273892857,0.0,0.6616000000000001,0.0
mp-9797,K2Sb4Se8,14,5,2,429.7998461336102,4.6243077833587485,30.699989009543582,2.90966256,-4.097120413571427,-0.7581178259464271,0.0,1.117299999999999,0.0
mp-1211981,K4Si12As12,28,3,55,716.3556378490493,3.227816827881101,25.58412992318033,4.274760459999999,-4.737805398571427,-0.249563768535713,0.0,1.413499999999999,0.0
mp-1192538,K4Sn12As12,28,3,62,852.2939402753487,4.831773241235692,30.43906929554817,4.65508316,-4.126473246785714,-0.244979977464285,0.0,0.519199999999999,0.0
mp-28769,K2Sn4Se8,14,4,8,469.6417713515071,4.188869724020158,33.545840810821936,1.48348243,-4.1750736050000015,-0.8701936988035711,0.0,1.172699999999999,0.0
mp-561973,K4Te8O24,36,4,12,521.8487132056738,4.967720187375412,14.495797589046497,2.95277715,-5.737187512222223,-1.614326674509258,0.0,1.0307,1.0
mp-690511,K10Co4O9,23,5,1,435.6185968572631,2.937878924952037,18.939938993794048,1.5958238100000002,-5.082856519999999,-1.414203774239129,0.0,0.3409,1.0
mp-582813,K40In20Sb36,96,4,14,3492.4334716944445,3.919589681063759,36.37951533015046,3.07220343,-3.040079402395833,-0.445472023055554,0.0,0.644699999999999,0.0
mp-1224638,K20Nb2In2As12,36,4,7,1203.1228655755688,2.893533995818605,33.420079599321355,1.21461957,-3.345397078611111,-0.445679789398148,0.0,0.9145,0.0
mp-680237,K20Th6P20S72,118,4,15,3421.05130712472,2.476621974246818,28.99196022987051,2.19836982,-5.218831105084746,-1.207120059981839,0.0,2.4587,0.0
mp-1224229,K10Zn4Sn4S17,35,6,160,1028.1992020550306,2.701186557855463,29.37712005871516,0.95213615,-4.119092936857143,-1.183576601571427,0.0,2.1377,0.0
mp-680539,K22In12Bi18,52,5,2,1938.963466037441,5.138112811501989,37.287758962258486,2.65519096,-2.78212037057692,-0.320181209028843,0.0,0.0282,0.0
mp-1194660,K22Cd4Sb10,36,5,2,1403.695042937764,2.9898640859336263,38.99152897049345,1.22397479,-13.625036244444445,-0.5726775039583331,0.0,0.5584,0.0
mp-560465,K11Li1Mn4O16,32,1,121,564.3940708049079,2.685502595197144,17.63731471265337,0.27736425,-5.90005671125,-1.8322621154627328,0.0,1.7462,1.0
mp-570411,K48In8Se36,92,4,14,3188.452586404089,2.936165457084861,34.65709333047923,1.79937974,-3.445596688913043,-1.247423321149003,1.0,1.5563,0.0
mp-14679,K28Fe8O26,62,4,14,1152.6403285554047,2.820047007394156,18.59097304121621,0.7186433600000001,-5.293701078709679,-1.6149025618225812,0.0,2.250499999999999,1.0
mp-554146,K28In8O26,62,4,14,1279.3900248249706,3.152999158871172,20.63532298104792,0.52967862,-4.592381632096776,-1.6504666592957,1.0,1.8384,1.0
mp-1195294,K28Zn2Ge32,62,3,31,2086.730113635154,2.824992719029521,33.65693731669603,1.47646915,-3.126854000322581,-0.18919705166129,1.0,0.8916000000000001,0.0
mp-1029850,K30Cr14N38,82,5,2,1484.310945494508,2.722030031256461,18.101352993835462,1.6617161500000002,-6.44000401609756,-0.5139270578963401,0.0,0.7090000000000001,0.0
mp-1029869,K30Mo14N38,82,5,2,1664.5444124251003,3.041028409465275,20.29932210274513,1.57828582,-6.69358604609756,-0.5638940030182911,0.0,1.3026,0.0
mp-1029965,K30Os14N38,82,5,2,1596.013440627579,4.545035688675054,19.463578544238768,3.09758395,-6.322188579756098,-0.127325286920732,0.0,0.062399999999999,1.0
mp-1029863,K30Re14N38,82,5,2,1628.0097318096368,4.398261893673761,19.853777217190693,3.18784108,-6.840069049634146,-0.43678557527439,0.0,0.0478,0.0
mp-1030950,K30W14N38,82,5,2,1688.2350537578543,4.208765957408268,20.588232362900666,1.37005102,-7.132106214634145,-0.6417468339939021,0.0,1.5284,0.0
mp-674338,K16Zr12Se61,89,5,1,2696.136890336703,4.025999699298613,30.29367292513149,3.16376311,-5.029861001348315,-1.277895571449087,0.0,1.3461,0.0
mp-558482,K17Fe5O16,38,4,8,701.6029856947503,2.839865920415009,18.463236465651324,1.73178025,-5.323288730263156,-1.619321166664471,0.0,2.1335,1.0
mp-542749,K4Mo6Se36,46,4,4,1292.795111524944,4.591409422024395,28.104241554890084,2.1546477,-5.032442524782611,-0.7834818128994581,0.0,0.8620999999999991,0.0
mp-31012,K4Nb6Br18,28,4,12,857.1099894679957,4.169420433571146,30.61107105242841,1.15171829,-4.887108203928572,-1.508595819607144,1.0,1.0786,0.0
mp-28501,K4Nb6Cl18,28,4,12,737.9181037617641,3.042376512476452,26.354217991491574,1.74187649,-5.391437673928572,-1.876899119250001,0.0,1.086799999999999,0.0
mp-541638,K8Re12S24,44,4,15,968.3587775014404,5.687691984057335,22.00815403412365,4.817138,-6.915473336136364,-1.057542474954544,0.0,1.469599999999999,0.0
mp-541060,K8Re12Se24,44,4,15,1092.5657467243127,6.751657726118353,24.831039698279834,3.97264083,-6.43045013022727,-0.9229454998693152,0.0,1.136099999999999,0.0
mp-541353,K8Tc12S24,44,4,15,960.0871024591668,3.905971045241661,21.82016141952652,3.55244949,-13.553318753636365,-0.9950907067613612,1.0,1.032,0.0
mp-541354,K8Tc12Se24,44,4,15,1084.1625046126396,5.18278017168657,24.640056923014537,2.93202353,-5.93939161318182,-1.001198418051137,1.0,0.8982999999999991,0.0
mp-541915,K8Ag4As12Se24,48,4,14,1467.391907636052,4.004098921533341,30.57066474241775,1.28327653,-4.0326954775,-0.6917360118940971,0.0,1.400999999999999,0.0
mp-558500,K4Ag4Ge2S8,18,3,70,466.37250732267154,3.523747712574194,25.90958374014842,1.51527762,-4.122143582777777,-0.8860234797592581,1.0,1.6880000000000002,0.0
mp-1188845,K4Ag4Ge2Se8,18,3,70,527.136905375232,4.299351589694061,29.28538363195733,1.09997989,-3.788861138888888,-0.838273520245369,0.0,1.077799999999999,0.0
mp-570887,K4Ag4Sn2Se8,18,4,13,528.2486645190307,4.57994335662116,29.34714802883504,1.59873107,-3.72290588,-0.8404800391342581,1.0,0.8472000000000001,0.0
mp-7494,K4Ag8S6,18,4,12,412.664805135432,4.8759258979306015,22.925822507524,2.198126,-14.105951545,-0.5987255784374981,1.0,0.128299999999999,0.0
mp-559880,K8Ag24Sn12S40,84,3,60,2077.30486728115,4.483471513893376,24.72981984858512,2.30347541,-4.123786914761896,-0.660326116880943,1.0,0.7928000000000001,0.0
mp-7642,K4Ag2As2,8,3,63,238.1194104885925,3.640006601411066,29.764926311074067,1.18862841,-2.8280287525,-0.384078838416666,0.0,1.0719,0.0
mp-27549,K4Ag2Bi2,8,3,63,287.2969250319207,4.566620318681974,35.91211562899009,1.32611071,-23.387755965,-0.414086274374998,0.0,0.6783,0.0
mp-1110920,K2Ag1Bi1Cl6,10,0,225,317.69940831376675,3.176633353516061,31.76994083137668,0.49212144,-3.6307720089999993,-1.6220751856166662,0.0,2.0583,0.0
mp-1104293,K4Ag2F8,14,4,14,241.861109250423,3.598414259607373,17.275793517887358,-1.43579802,-4.169531602857143,-2.346519228023809,0.0,0.6126,0.0
mp-9778,K4Ag2P2,8,3,63,225.00450196303407,3.203500445683494,28.12556274537926,1.49639947,-11.03760569125,-0.438985358869047,0.0,1.232,0.0
mp-1111950,K2Ag1Rh1F6,10,0,225,167.78441415141526,3.988046326716506,16.778441415141526,0.0471862,-4.642030201,-2.246720276616666,0.0,1.4182,0.0
mp-7643,K4Ag2Sb2,8,3,63,274.92413557164514,3.718517510334226,34.36551694645564,1.5618416,-15.27713933125,-0.5024591443749991,0.0,1.1871,0.0
mp-17886,K16Al16Sb24,56,4,14,1811.2989664508568,3.648290127989335,32.34462440090816,3.03278768,-15.150970309285714,-0.491017206071429,0.0,1.337599999999999,0.0
mp-8147,K4As4Pd2,10,3,63,283.1039604457924,3.9235308699509712,28.31039604457924,2.01619287,-3.861036971,-0.5044637069000001,0.0,0.645799999999999,0.0
mp-1079513,K4As4Pt2,10,3,63,282.52996751149976,4.97372796306747,28.252996751149976,2.53742324,-4.021485168000001,-0.4866616019,0.0,0.3521,0.0
mp-9511,K4As2Au2S8,16,4,11,439.30635329850406,3.6162016336172913,27.456647081156504,1.08368221,-4.222644521875001,-0.877621740875,1.0,0.9987999999999992,0.0
mp-1195201,K4Au2I10O30,46,3,36,832.224040424509,4.58790585472247,18.0918269657502,3.18473864,-4.832077940217391,-1.03311708823913,1.0,1.9927,1.0
mp-4351,K4B4S14,22,4,15,505.660477321904,2.129764951846263,22.98456715099564,1.69905014,-5.025463000909091,-0.971823004575756,0.0,2.5194,0.0
mp-542637,K4B4Se14,22,4,15,591.8123068888374,3.66185638639651,26.900559404038063,1.208417,-4.453305875454544,-0.8084964817490511,0.0,1.6406,0.0
mp-863761,K4Ba2Cd2Sb4,12,3,26,441.7409275687037,4.296286030416283,36.81174396405864,2.50513889,-2.9118234283333333,-0.6785355857499991,0.0,0.15,0.0
mp-1212599,K16Ba8Nb16S88,128,4,14,3400.0681634764405,2.946133268628598,26.56303252715969,2.47810479,-5.666190484296875,-1.297048002546874,1.0,0.9839,0.0
mp-27915,K8Be4O8,20,4,14,318.50525890128915,2.48597272935165,15.925262945064455,0.31879316,-5.2799489895,-2.1003341254,0.0,2.9234,1.0
mp-1202167,K4Bi2I10O30,46,3,39,826.5904323737202,4.667443836550646,17.969357225515658,1.79609249,-5.007473408478261,-1.181723325630435,0.0,2.9708,1.0
mp-28800,K2Bi8Se13,23,4,12,705.0161079618767,6.539594691555231,30.65287425921204,2.68047493,-4.219093732173914,-0.791708378476904,0.0,0.8361000000000001,0.0
mp-1084770,K4Bi2Au2,8,3,63,284.31098475303514,5.655351733004543,35.53887309412939,1.719278109999999,-30.80086208375,-0.519921641875001,0.0,0.8705,0.0
mp-989591,K2Br1Cl6F1,10,0,225,259.4081095787298,2.495320457366353,25.94081095787298,0.26679446,-2.843272424,-1.15279290845,1.0,0.9144,0.0
mp-557832,K4Cd2Au8S8,22,3,72,574.9169770871415,6.393183400980291,26.132589867597343,1.55380255,-3.739282876363636,-0.7509450667727261,0.0,2.032899999999999,0.0
mp-7534,K4Cd4O6,14,4,14,257.00605812411413,4.535901711324128,18.357575580293865,0.27050279,-4.123469275,-1.405377440642856,1.0,0.6513,1.0
mp-571637,K24Cd24Te36,84,4,14,3146.506426838055,4.343211511741299,37.45840984331018,2.37722358,-2.849144075595238,-0.904475860523808,0.0,1.882299999999999,0.0
mp-18101,K8Cd12S16,36,3,62,954.7885720764292,3.782273258427136,26.52190477990081,0.87363415,-12.619109103055557,-1.008943850694444,0.0,1.9018,0.0
mp-1198419,K8Cd12Se16,36,3,62,1065.6002399202484,4.558188684746677,29.600006664451342,0.37056068,-3.156666976388888,-1.031509651263887,1.0,1.4027999999999992,0.0
mp-1212732,K16Cd8Ge8O32,64,3,29,1129.0687780004698,3.85027696838574,17.64169965625734,-0.33521278,-5.386104859843749,-1.931402171031249,0.0,2.3122,1.0
mp-27742,K8Cd4O8,20,3,60,383.6909196532737,3.853587403206948,19.184545982663685,0.29642755,-4.03070441,-1.406970080899999,0.0,1.3562,1.0
mp-2046082,K4Cd2Pb2,8,3,63,311.54945386638866,4.240579160659872,38.94368173329858,1.6947330999999992,-22.37724608375,-0.270583665624997,0.0,0.1648,0.0
mp-541538,K16Cd8Si8O32,64,3,29,1057.642033940695,3.550683017886349,16.52565678032336,1.39439909,-5.901250340468749,-2.3462613797812493,0.0,2.9406,1.0