material_id,composition,nsites,crystal_system,space_group,volume,density,density_atomic,efermi,energy_per_atom,formation_energy_per_atom,is_gap_direct,band_gap,is_oxide
mp-1194442,Ba1Ru2Xe5F22,30,3,69,604.0496048918417,3.886818185839337,20.134986829728057,-3.01768877,-3.767978909666666,-1.676198805666666,0.0,1.239299999999999,0.0
mp-733954,Ba6Ru6O30,42,6,167,701.3442071933421,4.52307728628853,16.69867159984148,-0.25163479,-6.920336407857143,-1.787024621428571,0.0,0.895899999999999,1.0
mp-1500,Ba1S1,2,0,225,67.12620118023261,4.190346371817915,33.563100590116306,1.35700937,-5.35775155,-2.329084296249999,0.0,2.1488,0.0
mp-684,Ba2S4,6,4,15,181.1360806348224,3.693656366723054,30.1893467724704,2.20192847,-5.150796840000001,-1.752232148333333,0.0,1.598199999999999,0.0
mp-239,Ba2S6,8,1,113,203.75848204461352,3.80619643432229,25.46981025557669,3.4986224,-5.01708457,-1.433571159374998,0.0,1.391299999999999,0.0
mp-556539,Ba1Sb2Xe5F22,30,3,69,623.829292995151,3.873726551724092,20.79430976650504,-3.35178057,-3.669150836333333,-1.920397485666666,0.0,2.5745,0.0
mp-545500,Ba2Sb2Cl2O4,10,3,63,218.58881379819084,4.9611910576658405,21.858881379819085,2.95011778,-6.059967644999999,-2.501479447,0.0,2.881,1.0
mp-18291,Ba8Sb8Te24,40,3,19,1480.0812310614283,5.761188872469049,37.002030776535705,4.52394115,-4.136793026999999,-1.041214254999998,0.0,0.620699999999999,0.0
mp-554796,Ba8Sc24Ag8S48,88,3,62,2021.280682687211,3.762289808277832,22.969098666900127,3.30959572,-6.423789070227272,-2.006563857651513,0.0,1.4793999999999992,0.0
mp-1103664,Ba2Sc2Cu2S6,12,3,63,259.3918326198694,4.379043563948019,21.61598605165578,4.50121004,-5.999252324166666,-1.871630754583332,0.0,0.8353,0.0
mp-1253,Ba1Se1,2,0,225,74.09331260733886,4.84730673334938,37.04665630366943,1.13655998,-4.99120499,-2.283761781171875,0.0,1.948799999999999,0.0
mp-7547,Ba2Se4,6,4,15,204.26639959932737,4.80029195950115,34.04439993322123,1.72622645,-4.678540316666667,-1.7082743515625,0.0,0.6166,0.0
mp-7548,Ba2Se6,8,1,113,234.3992236518773,5.301940277908506,29.29990295648465,2.62290274,-4.492955081249999,-1.391277738007811,0.0,0.926,0.0
mp-1477,Ba8Si16,24,3,62,713.4763881255375,3.602765206042742,29.728182838564063,3.44813571,-4.569430252083339,-0.312893252083338,0.0,0.7812999999999991,0.0
mp-1190822,Ba2Si18Rh4,24,4,15,423.4583123139207,4.673554184934157,17.64409634641336,7.15363407,-5.83492446875,-0.378636722916666,0.0,0.1793,0.0
mp-3777,Ba4Si4N8,16,3,64,246.6843825252166,5.208132921173995,15.417773907826035,4.54581667,-7.311447308125,-1.306235193125001,0.0,2.9202,0.0
mp-19248,Ba1Sm2Co1O5,9,3,71,134.01289889793503,7.149260860064488,14.89032209977056,3.79069283,-7.880000538888889,-3.076737321666666,0.0,1.4676,1.0
mp-8515,Ba2Sm4Pd2O10,18,1,127,269.8907419369051,7.684197392200426,14.99393010760584,2.878633149999999,-7.595667315,-3.009463532222222,0.0,2.032,1.0
mp-540635,Ba2Sn2Ge6O18,28,2,188,443.892838197006,4.623335565565327,15.853315649893071,1.37985654,-6.946768812500001,-2.35182028357143,0.0,2.7866,1.0
mp-696946,Ba2Sn4H4O8,18,4,4,313.8212506697756,4.664438717845297,17.434513926098642,2.6117992,-5.963961252222222,-1.906150635833333,0.0,2.102,1.0
mp-27802,Ba6Sn12S18,36,4,11,1006.5100469387644,4.661757275932973,27.958612414965675,4.16969251,-4.984643634166663,-1.259110742083328,0.0,1.569499999999999,0.0
mp-555954,Ba2Sn2Hg2S8,14,3,40,412.90762635603335,4.704334098247069,29.49340188257381,1.90201418,-4.396596062142857,-1.1406450475,0.0,1.8593,0.0
mp-3163,Ba1Sn1O3,5,0,221,71.13628093297905,7.097114448493584,14.22725618659581,4.12362011,-6.741954234,-2.587468271999999,0.0,0.372399999999999,1.0
mp-12181,Ba4Sn4S8,16,4,14,478.3870129393772,4.44535321366255,29.899188308711075,3.25787854,-5.09428270375,-1.542966221249999,0.0,1.638,0.0
mp-1227831,Ba1Sr3Co4O12,20,3,25,252.9359714536413,5.435293267772989,12.646798572682066,2.45493636,-6.77202315,-2.0267502425,0.0,0.0437,1.0
mp-559427,Ba2Sr8U6O28,44,3,64,716.0714952307584,6.613133774285526,16.27435216433542,2.3818883,-8.720735642727275,-3.637355124545455,0.0,2.0784,1.0
mp-559151,Ba2Sr2Ta4O14,22,3,71,327.09406626590385,7.095504625774085,14.86791210299563,1.90232739,-9.122442114090909,-3.487807100424242,0.0,2.1929,1.0
mp-561103,Ba12Ta24O72,108,2,191,1583.9133795123248,7.488172127239577,14.665864625114118,1.68589584,-9.588454677314814,-3.439499560055555,0.0,2.1161,1.0
mp-1095278,Ba2Tb2Ag2Te6,12,3,63,399.5190995489643,6.541426014729041,33.29325829574702,4.06637131,-4.605500253333333,-1.467217933055554,0.0,0.7735000000000001,0.0
mp-1095403,Ba2Tb2Cu2Te6,12,3,63,381.6084327033496,6.462716571707856,31.80070272527913,4.63185538,-4.8031599950000015,-1.455499509444444,0.0,0.530999999999999,0.0
mp-1000,Ba1Te1,2,0,225,89.09415786940792,4.937715825789216,44.54707893470396,2.12107087,-4.534715075000001,-2.003574658333334,0.0,1.593,0.0
mp-2150,Ba2Te4,6,1,140,239.7574117339152,5.437216004973213,39.9595686223192,4.25340327,-4.209713794999999,-1.474518219444442,0.0,0.1253,0.0
mp-8234,Ba2Te6,8,1,113,292.64589875671544,5.902636645603349,36.58073734458943,4.48828638,-4.038821412499999,-1.201598257499998,0.0,0.8198000000000001,0.0
mp-5431,Ba2Te2O6,10,4,11,189.26378785886052,5.49100834768368,18.92637878588605,2.38545908,-6.338290204000003,-2.357057434333336,0.0,2.7149,1.0
mp-754967,Ba4Te4O16,24,3,60,415.8122578930176,5.254218824941958,17.3255107455424,1.728531359999999,-6.392481994583332,-2.25012785236111,1.0,2.1894,1.0
mp-27499,Ba4Te4S12,20,3,62,585.3496576133798,4.097770834982159,29.26748288066899,2.95834208,-4.684428414500002,-1.188956507333334,0.0,1.9088,0.0
mp-1195483,Ba4Th8S20,32,4,14,813.5882950710367,6.218768431408333,25.424634220969896,6.2487522,-7.062422996875,-2.382611837187498,1.0,1.735999999999999,0.0
mp-1206598,Ba2Th2N4,8,2,194,158.31725131904096,8.335951408423462,19.78965641488012,5.23058322,-7.865167231249998,-1.362820061249998,0.0,0.435799999999999,0.0
mp-1214314,Ba1Ti1As2O8,12,4,12,189.26556511108424,4.062457895340247,15.772130425923686,0.4092471,-7.421882796666666,-2.527016124861111,0.0,2.4211,1.0
mp-1227524,Ba1Ti1I6O18,26,6,146,437.276663288896,4.688377730488108,16.81833320341908,4.80102637,-5.507377426153846,-1.352691243974359,0.0,2.7339,1.0
mp-1214296,Ba1Ti1P2O8,12,4,12,170.7780288650733,3.647595593286182,14.231502405422775,1.04938495,-8.209489948333333,-3.190398111051586,0.0,2.592399999999999,1.0
mp-1198551,Ba4Ti4S24O84,116,4,14,1804.6705170041123,2.626325803727318,15.557504456932003,-0.88868148,-6.8807061305172414,-2.103057666149424,1.0,2.7332,1.0
mp-558159,Ba4Ti8O20,32,3,62,443.4190247196436,4.68942476647537,13.856844522488863,1.65799044,-8.838330958125063,-3.532110458333396,0.0,2.8033,1.0
mp-5777,Ba1Ti1O3,5,3,38,65.57310741671338,5.905237274567591,13.114621483342678,2.85356728,-8.423947971999999,-3.492277977666666,0.0,2.293,1.0
mp-754897,Ba4Tl8O16,28,3,62,437.5025881856312,9.262393404255944,15.625092435201111,3.49277041,-5.445678471785714,-1.666569444166668,0.0,0.8200000000000001,1.0
mp-1227825,Ba2U4V4O24,34,4,7,567.2576560506778,5.3116663548852845,16.684048707372877,2.47151628,-9.129214188823529,-3.126558944117646,0.0,1.9806999999999992,1.0
mp-574430,Ba2U2I12,16,4,9,867.2365129083009,4.35330409941076,54.20228205676881,1.19679467,-4.284310932499999,-1.490003352499997,0.0,0.199899999999999,0.0
mp-5611,Ba4U4O16,24,3,57,391.8449842635073,7.447472308714998,16.326874344312802,2.78559322,-9.168461641249998,-3.668090146249997,1.0,2.1144,1.0
mp-1194611,Ba4U4Te24,32,4,14,1142.258360052222,6.634582606115611,35.69557375163193,5.5849036,-5.05319119875,-1.044413659999998,0.0,0.181699999999999,0.0
mp-560110,Ba4U4Ti4O24,36,4,14,574.8657814472051,5.9992017351777465,15.96849392908903,2.16717218,-9.265580193611113,-3.621842082870369,0.0,1.9643,1.0
mp-19458,Ba2V20O30,52,3,64,553.0849630878657,5.324515712460244,10.636249290151264,4.94676628,-8.943557727115385,-2.52134808423077,0.0,0.8558000000000001,1.0
mp-18723,Ba1V2Ni2O8,13,6,148,172.85266077953702,4.6553170991573705,13.296358521502848,2.93330096,-7.750973118461539,-2.271684773846154,0.0,0.016199999999999,1.0
mp-557348,Ba2V4P8O28,42,5,2,598.3549630193056,3.258590569566159,14.246546738554896,1.78973247,-8.140622270714285,-2.853949163503401,0.0,2.0462,1.0
mp-18929,Ba3V6O18,27,3,21,430.2301978550438,3.881340677731001,15.93445177240903,-0.58656794,-8.224208113703703,-2.693702212592591,0.0,2.878,1.0
mp-556790,Ba4V8Te4O32,48,4,14,763.0396321178771,4.307211999860557,15.896659002455772,1.26323238,-7.634381341875,-2.399899590763889,0.0,2.6938,1.0
mp-17264,Ba4V4As4O24,36,4,14,527.560025698692,4.522277552438899,14.654445158297,0.50343832,-7.495278198333334,-2.455192690277778,0.0,2.6697,1.0
mp-1214298,Ba4V4Cd4F28,40,4,15,601.4719357214259,4.789072596900758,15.036798393035648,2.76985604,-5.83404624475,-3.298060462249999,0.0,2.5315,0.0
mp-559481,Ba4V4Cl4O12,24,3,62,429.91567408535104,4.19804351608967,17.913153086889626,0.61100446,-7.386610226666666,-2.770726779166666,0.0,2.3925,1.0
mp-556379,Ba4V4O4F16,28,3,43,425.3996500448248,4.375980947043825,15.192844644458026,0.31466853,-6.822060521785716,-3.449738876785715,0.0,2.7946,1.0
mp-18520,Ba4V4P4O24,36,4,14,499.598961867176,4.191090482633005,13.87774894075489,1.02379174,-7.995347303333334,-2.872445018293651,0.0,2.469,1.0
mp-1047908,Ba4V4Zn4F28,40,4,14,555.2698208022888,4.625315549518185,13.88174552005722,0.27223936,-5.9030993885,-3.337140264,0.0,2.5205,0.0
mp-989622,Ba4W4N12,20,4,14,340.15347524074014,7.0919324591152,17.007673762037008,3.3171471,-8.8003423065,-0.8219546254999991,0.0,1.505,0.0
mp-6647,Ba2Y2Ag2Se6,12,3,63,333.1875546457494,5.691307052698065,27.76562955381245,2.716851939999999,-5.399531403333333,-1.773074978116318,0.0,1.3282,0.0
mp-10337,Ba2Y2Ag2Te6,12,3,63,397.6590418390843,5.9872507608831445,33.13825348659036,4.17453847,-4.914652295,-1.4644986619444431,0.0,0.7675000000000001,0.0
mp-1103275,Ba2Y2Cu2S6,12,3,63,282.7541605797372,4.533441030872233,23.562846714978097,3.86095631,-6.107073294166667,-1.950014658749999,0.0,1.1779,0.0
mp-1101801,Ba2Y2Cu2Se6,12,3,63,317.2276095609373,5.513628504190058,26.43563413007811,3.37632314,-5.645602149999999,-1.809767559505208,0.0,0.9653,0.0
mp-10336,Ba2Y2Cu2Te6,12,3,63,381.2387440648672,5.859023896080573,31.76989533873893,4.65641791,-5.110979150833334,-1.4514473525,0.0,0.5313999999999991,0.0
mp-1195207,Ba8Y8Fe8O32,56,3,62,798.7029030270551,5.756050742153955,14.26255183976884,4.68533295,-8.151619938392857,-2.910201128392857,1.0,1.7746,1.0
mp-11670,Ba2Y2Si8N14,26,2,186,321.0270823102787,4.516924042573491,12.347195473472256,5.74027708,-8.243565991153845,-1.43608270076923,0.0,2.7321,0.0
mp-1214224,Ba2Yb2Cu2Te6,12,3,63,371.6270367649044,6.762433162251297,30.968919730408697,4.59552351,-26.4430705075,-1.421831624166666,0.0,0.7876000000000001,0.0
mp-1041309,Ba4Zn4Ag4F28,40,4,14,585.4996923714824,5.032306953965164,14.63749230928706,-1.18705162,-4.5025191575,-2.560656872166666,0.0,0.3827,0.0
mp-1079320,Ba2Zn2As2F2,8,1,129,177.84166110237393,5.539859216355902,22.23020763779674,2.9830057400000003,-4.429661045,-1.988987680624999,1.0,0.247099999999999,0.0
mp-1041302,Ba4Zn4Cu4F28,40,4,14,538.7086767273476,4.922919027601048,13.467716918183688,-0.93296536,-4.81178762825,-2.74429844375,0.0,0.7594000000000001,0.0
mp-4236,Ba3Zn3O6,12,6,152,204.24457974584027,5.725287390866139,17.02038164548669,1.16992688,-5.634084176666666,-2.365424036666665,0.0,2.2724,1.0
mp-548469,Ba2Zn2S2O2,8,3,63,161.26306331513743,5.165024817928211,20.15788291439218,2.38654099,-5.14430216625,-2.078042385625,1.0,2.2367,1.0
mp-13593,Ba8Zn8Sn8S32,56,3,43,1563.0598380439326,3.822013019892745,27.91178282221308,1.90049522,-4.721576246607143,-1.329900721607142,1.0,2.271099999999999,0.0
mp-1191811,Ba2Zn2Te4O14,22,3,40,327.6420001846207,5.777000620582103,14.892818190210033,3.37008001,-5.988035958181817,-1.978848924393938,0.0,1.6684,1.0
mp-3104,Ba2Zr2N4,8,1,129,147.38682252456016,5.781184531986169,18.42335281557002,3.14991617,-8.209672125,-1.423864360000001,0.0,0.9972,0.0
mp-540771,Ba4Zr4S12,20,3,62,506.0566946992324,4.262395303692848,25.30283473496162,2.88159427,-6.683471456999999,-2.107120602499998,1.0,0.99,0.0
mp-998427,Ba4Zr4Se12,20,3,62,561.8133477504385,5.50265572294674,28.090667387521925,2.97248738,-6.1113449565,-1.920462955906249,1.0,0.372599999999999,0.0
mp-757917,Be6Ga12O24,42,6,145,467.6332372050388,4.52651049413797,11.134124695358066,1.04723048,-6.736013494523808,-2.50923507595238,1.0,2.8899,1.0
mp-1569,Be2C1,3,0,225,20.218610784013585,2.466756874278714,6.739536928004528,6.31837236,-5.800467526666666,-0.231303785833333,0.0,1.163699999999999,0.0
mp-1215013,Be4Co2N4F28,38,4,14,591.0648760562208,2.084287777073172,15.554338843584755,-4.19711833,-4.829694503684211,-1.772708651578947,0.0,0.662999999999999,0.0
mp-567841,Be24P16,40,0,206,529.7308149028433,2.23149600337552,13.243270372571084,5.0792118,-4.64119878275,-0.231361653607142,1.0,0.8891,0.0
mp-27608,Be4Te1O7,12,0,216,108.81526870103222,4.20638126158646,9.067939058419352,3.07947773,-6.967185133333333,-2.572461434305555,1.0,1.280699999999999,1.0
mp-1072399,Be5Pt1,6,0,216,52.9965917324898,7.524446226900912,8.8327652887483,6.2554758,-4.589629785,-0.461596844166666,0.0,0.095299999999999,0.0
mp-15919,Be12Ag12P12O48,84,4,14,973.778614722782,4.335130288390942,11.592602556223593,2.22168796,-6.91907660202381,-2.377695446496598,0.0,2.8716,1.0
mp-1193887,Be4Cr8O16,28,3,62,254.39765156712795,4.621405962925308,9.085630413111712,3.21637849,-8.719697036428569,-2.600075347142854,0.0,2.8371,1.0
mp-1009088,Be2Ge2As4,8,1,122,158.31249595440102,4.856308066284442,19.789061994300127,4.2037631300000005,-4.59454341375,-0.1688719675,0.0,0.6522999999999991,0.0
mp-1013527,Be2Ge2P4,8,1,122,139.67755075638894,3.414334235873869,17.459693844548617,4.98191575,-5.06597020375,-0.267623261071428,0.0,0.9023,0.0
mp-27148,Be8P16,24,4,15,378.1575154801126,2.492746734235346,15.75656314500469,5.4305251,-5.176169704583333,-0.319383066011903,0.0,0.836199999999999,0.0
mp-1541,Be1Se1,2,0,216,34.50577300165209,4.2335305740883165,17.252886500826044,2.92071872,-4.647050035,-1.029387863671874,0.0,2.663699999999999,0.0
mp-1009087,Be2Si2As4,8,1,122,151.63648820777536,4.094300011489495,18.95456102597192,4.40342348,-4.83157439625,-0.205330406249999,1.0,1.0226,0.0
mp-1009085,Be2Si2P4,8,1,122,133.16868998197077,2.470076621534859,16.646086247746346,5.46849711,-5.37151493,-0.372595443571428,1.0,1.1502,0.0
mp-1009084,Be2Sn2As4,8,1,122,178.11038475274592,5.175533824000081,22.26379809409324,4.56630099,-4.442035604999999,-0.169728158749999,0.0,0.6936999999999991,0.0
mp-252,Be1Te1,2,0,216,45.4005098428141,4.996636953414623,22.70025492140705,4.56983087,-4.011721319999999,-0.570361940833332,0.0,2.017299999999999,0.0
mp-679989,Bi4Mo24Cl60,88,4,15,2310.020429792882,3.785177258834649,26.250232156737297,1.74000957,-5.75052867875,-1.355434271022727,0.0,2.133299999999999,0.0
mp-569822,Bi4W24Cl60,88,4,15,2347.0516078352944,5.217997751864626,26.671040998128344,4.22007345,-6.161430146250001,-1.190204796704546,0.0,1.9545,0.0
mp-558215,Bi10Mo3O24,37,4,5,578.3170069414159,7.929492946698248,15.630189376795023,3.16633801,-6.953122907837788,-1.812897028108059,1.0,2.6912000000000003,1.0
mp-691119,Bi14Mo1O24,39,5,1,654.7840616005493,8.636766220285814,16.789334912834597,6.18216202,-6.417050549999999,-1.697635304615385,0.0,2.6318,1.0
mp-759924,Bi14S1O24,39,4,8,645.9834756466801,8.590235108381002,16.563678862735387,3.69519977,-6.252673130512819,-1.7052396939102552,0.0,2.706699999999999,1.0
mp-685318,Bi60As4O100,164,6,146,2809.369241743352,8.534161545631628,17.13030025453263,5.98474397,-6.215684314695123,-1.661546209634148,0.0,2.2346,1.0
mp-23388,Bi8Mo12O48,68,4,14,947.8065623428338,6.291529073515254,13.93833179915932,1.984567639999999,-7.761456030735296,-1.8971883242647087,1.0,2.717,1.0
mp-28975,Bi8P12Se36,56,4,14,1565.716416082682,5.181998792840427,27.95922171576218,2.72221206,-19.734954253214287,-0.24818150289222,0.0,1.3635,0.0
mp-629690,Bi4Pb6S12,22,4,12,588.0578116490917,6.957487481689447,26.729900529504167,4.6710696,-4.697879326818184,-0.7207732145454541,1.0,0.5274999999999991,0.0
mp-560085,Bi48Cl20O62,130,4,13,2385.277085678378,8.167428685969224,18.34828527444906,4.43150565,-5.760057197153845,-1.679548849538461,0.0,2.1764,1.0
mp-557090,Bi8Au20F84,112,1,92,1849.8650209689408,6.469429976858691,16.51665197293697,-0.92811075,-4.049257413035714,-1.7513867525000002,1.0,1.2285,0.0
mp-556210,Bi16C8O40,64,3,33,861.8579406588494,7.860438033099017,13.466530322794522,5.19268304,-7.0030893215625,-1.7845219293750012,0.0,2.4505999999999992,1.0
mp-556586,Bi16Mo16O72,104,4,14,1609.0574111881149,6.223634397540799,15.471705876808794,2.00240983,-7.579248158461539,-1.8867083211538471,1.0,2.88,1.0
mp-1200193,Bi4Mo4Se4O26,38,5,2,556.3938226291571,5.82420548163448,14.641942700767292,2.05375285,-6.991582082631578,-1.6870197215625,0.0,2.8105,1.0
mp-23064,Bi8Mo4O24,36,3,29,497.9733570727421,8.135038654785008,13.832593252020612,3.7606227,-7.225672830833332,-1.857507857499999,0.0,2.129299999999999,1.0
mp-23262,Bi8O12,20,4,14,327.9206233179676,9.438175801265304,16.396031165898382,4.50689941,-6.166517542000003,-1.641727215000003,0.0,2.194499999999999,1.0
mp-675543,Bi2Pb1Se4,7,6,166,209.85418482066743,7.4459729808922255,29.97916926009535,4.05557131,-33.43616468285715,-0.502461465178571,1.0,0.4549,0.0
mp-29259,Bi8Pd4O16,28,1,130,439.7962364970344,8.886163528142784,15.707008446322655,4.71860145,-6.087769966785714,-1.408942188214287,0.0,0.498199999999999,1.0
mp-23341,Bi4Pt4O14,22,0,227,283.2825424331592,10.78713027153947,12.876479201507236,5.67565775,-6.290635338636362,-1.330811493636362,0.0,0.7805000000000001,1.0
mp-1078366,Bi4S4O2,10,1,129,219.67965680937897,7.5300394019488035,21.967965680937898,4.8227816,-5.201454824000001,-1.000505072000002,1.0,0.9401,1.0
mp-22856,Bi8S12,20,3,62,517.2810621133061,6.602026285137526,25.864053105665302,4.14431336,-28.6359473035,-0.414038356187501,0.0,1.361799999999999,0.0
mp-27891,Bi4S2O4,10,3,58,178.24590085987023,8.981083721992539,17.824590085987023,5.5926041,-5.7013293849999975,-1.338459345499998,0.0,0.8266,1.0
mp-541837,Bi2Se3,5,6,166,151.77783048479455,7.164344933185313,30.35556609695891,3.68568557,-32.421922572,-0.434076935437502,1.0,0.3769,0.0
mp-505564,Bi8Se16Cl28,52,5,2,1539.9871267515302,4.235366667354257,29.615137052914044,0.53856498,-17.412268814807693,-0.6955102997115381,0.0,1.0179,0.0
mp-552098,Bi2Se1O2,5,1,139,92.74067800283996,9.470403686972716,18.548135600568,5.67890132,-5.585749786000003,-1.351369364468753,0.0,0.368699999999999,1.0
mp-29839,Bi8Se4O20,32,3,39,511.80489807146506,7.487185439035461,15.993903064733283,3.01268075,-6.08212278375,-1.58014964341797,0.0,2.8422,1.0
mp-667426,Bi32Te32O112,176,3,60,2883.938730447265,7.233347609970219,16.386015513904912,4.24046665,-6.042014093977272,-1.614522508371211,0.0,2.561199999999999,1.0
mp-27910,Bi2Te2S1,5,6,166,165.18278697670746,7.089449288922396,33.03655739534149,4.67059811,-35.5065348,-0.331735761562498,1.0,0.436799999999999,0.0
mp-29666,Bi2Te2Se1,5,6,166,171.2386874142613,7.293480171224617,34.24773748285226,4.03651559,-36.776743938,-0.346632669812504,1.0,0.544199999999999,0.0
mp-34202,Bi2Te3,5,6,166,181.7667606640336,7.315389164356592,36.35335213280672,5.17026459,-38.925645088,-0.274401004000003,1.0,0.3388,0.0
mp-28990,Bi8Te16O44,68,4,14,1048.1448488719282,6.998358268658964,15.413894836351885,4.1960727,-5.975718742794117,-1.5768444340686272,0.0,2.828999999999999,1.0
mp-30097,Bi4Te14Cl16,34,5,2,1081.4325714738902,4.897582212843133,31.80684033746736,2.76802044,-20.848714153235296,-0.6049124567647101,0.0,0.8311000000000001,0.0
mp-23334,Bi8Te4O20,32,3,39,529.0117303166012,7.854367725983495,16.531616572393787,3.92510063,-6.102636548437502,-1.644739106145836,0.0,2.4275,1.0
mp-27251,Bi4Te2O12,18,3,64,240.23229014722577,8.869172361514133,13.346238341512542,5.24271359,-6.12926695,-1.616918000740741,0.0,1.259299999999999,1.0
mp-23480,Bi8W4O24,36,3,29,496.178476981033,9.341150935963606,13.782735471695364,3.72162066,-7.559437763888888,-1.956552777222222,0.0,1.913999999999999,1.0
mp-1193877,Bi6Te4Cl20,30,5,2,909.891984022536,4.513812356188953,30.329732800751195,2.49032968,-20.08821978066667,-0.897175858666669,0.0,1.2582,0.0