material_id,composition,nsites,crystal_system,space_group,volume,density,density_atomic,efermi,energy_per_atom,formation_energy_per_atom,is_gap_direct,band_gap,is_oxide
mp-1214569,Ba3Ca1Nb2O9,15,6,164,229.8111640768016,5.649506371267708,15.320744271786774,2.05551185,-8.136302116666666,-3.303183195000001,0.0,2.646,1.0
mp-861914,Ba6Co2C6N6,20,2,176,419.9006906866025,4.341884475862578,20.995034534330124,3.0709038,-7.253677806000001,-0.6945606807500011,0.0,0.7976999999999991,0.0
mp-1281162,Ba6Cr4O16,26,5,1,427.50010917916416,5.002734094777693,16.442311891506314,2.30846715,-7.602421522307693,-2.629597845384615,0.0,1.1478,1.0
mp-2760769,Ba6Cr4O16,26,4,9,412.8442738562293,5.180329502296962,15.87862591754728,3.77850725,-14.79549300423077,-2.687984966153847,0.0,0.3043,1.0
mp-560798,Ba12Dy8P16S64,100,3,60,2587.010445015645,3.527533143638132,25.87010445015645,3.33722667,-5.6058713928,-1.4910984704761892,0.0,2.418999999999999,0.0
mp-1228336,Ba6Dy4Mo2O18,30,3,71,482.8991591921178,6.718613970191636,16.09663863973726,2.68298483,-7.868725785,-3.177327449555555,0.0,1.3959,1.0
mp-1228348,Ba6Dy4W2O18,30,3,71,484.1512605917683,7.304196214893349,16.138375353058944,2.62540482,-8.096586321666667,-3.264355978222221,0.0,2.2084,1.0
mp-560534,Ba12Er8P16S64,100,3,60,2568.854420882231,3.5770750792170283,25.688544208822307,3.39769292,-5.5965540928,-1.485833707942855,0.0,2.4204,0.0
mp-1228244,Ba6Er4Mo2O18,30,4,15,472.01174626942986,6.940554095752868,15.733724875647662,4.1852344200000005,-7.910409091333333,-3.225764984999999,1.0,2.063,1.0
mp-556259,Ba6Eu2Ru4O18,30,2,194,460.3689968859608,6.565267164982658,15.345633229532025,3.35224803,-7.7598975023333345,-2.484864778333334,0.0,0.0215,1.0
mp-556428,Ba6Fe4Br4O10,24,0,199,535.1015180489882,4.738471791423461,22.295896585374507,1.35982121,-6.670183176666666,-2.444294398749999,0.0,2.4063,1.0
mp-560330,Ba6Fe4Cl4O10,24,0,199,520.7337598407548,4.302223388225039,21.697239993364786,1.12701499,-6.793094417083332,-2.531939594999999,0.0,2.4471,1.0
mp-1228445,Ba6Fe4Te2O18,30,2,186,430.51017380481954,6.134905409793153,14.350339126827318,5.00124229,-7.036790367666667,-2.345328889111112,0.0,1.701299999999999,1.0
mp-1228376,Ba6Fe4W2O18,30,2,186,427.786929168225,6.610572777330655,14.2595643056075,4.29223783,-7.868534111666666,-2.522751010666667,1.0,1.515899999999999,1.0
mp-1196108,Ba18Ga18P30,66,6,167,1821.669535964794,4.24426996767765,27.60105357522416,2.98690795,-4.580202515757572,-0.7694224690043251,0.0,1.2456,0.0
mp-1195592,Ba24Ga8As24,56,3,62,1890.542802604556,4.964157553556973,33.759692903652784,3.02098174,-4.256827434107143,-1.00034337125,0.0,0.6858000000000001,0.0
mp-1029573,Ba6Ga2N6,14,2,176,327.43825478796765,5.311928679396825,23.38844677056912,2.30516985,-5.473136614285715,-0.644586031785714,0.0,0.361899999999999,0.0
mp-541715,Ba12Ga4P12,28,3,64,868.268887388211,4.395816779428476,31.009603121007537,2.799521,-4.522714730000002,-0.94679452734694,0.0,0.601,0.0
mp-28296,Ba24Ga8Sb24,56,3,62,2202.1386563988563,5.109396782798748,39.323904578551,3.0770429,-4.011500100714285,-0.986925163214284,1.0,0.3414,0.0
mp-684036,Ba12Gd8P16S64,100,3,60,2591.217069274063,3.494891475637969,25.912170692740627,2.47429061,-6.3640654425,-1.492672783242856,0.0,1.404399999999999,0.0
mp-17833,Ba12Ge4O4,20,3,62,633.6201367693964,5.247937579606735,31.68100683846982,3.20250804,-4.505382821999999,-1.439800085999998,0.0,0.153,1.0
mp-1200759,Ba12Ge4S20,36,3,62,1019.5055475527674,4.201872295518717,28.31959854313243,2.50810603,-5.313881547777779,-1.861464824166668,0.0,2.0632,0.0
mp-1228378,Ba6Hf2Ta8O30,46,4,7,662.92304444801,7.786420191530909,14.41137053147848,4.44763899,-9.501050213695653,-3.5270832964927523,0.0,2.4646999999999992,1.0
mp-559171,Ba12Ho8P16S64,100,3,60,2578.7872870152287,3.551301134559748,25.787872870152288,3.32976047,-5.6009868106,-1.487869573342856,0.0,2.4239,0.0
mp-1228250,Ba6Ho4Mo2O18,30,4,15,476.62763127157234,6.84088665539728,15.887587709052411,4.19072083,-7.899918105,-3.211279244666666,0.0,2.1402,1.0
mp-1228643,Ba3In2Mo1O9,15,6,164,225.01230466262345,6.505648094305731,15.00082031084156,3.68505208,-6.963793302,-2.520288537888889,0.0,1.8273,1.0
mp-20352,Ba3In2O6,11,1,139,193.9120518994904,6.31645044621835,17.62836835449913,3.10318574,-6.225809970909092,-2.501897394848485,0.0,0.598399999999999,1.0
mp-1228476,Ba6In4W2O18,30,3,71,453.5900098663373,7.098093961338573,15.119666995544575,3.53918996,-7.193555322666667,-2.609218550555555,1.0,2.6734,1.0
mp-620346,Ba12In4As12,28,3,62,963.3386794841704,5.181982526064888,34.40495283872038,2.83984208,-4.190820749285716,-0.972754154880954,1.0,0.5236000000000001,0.0
mp-1214916,Ba6In2Ir4O18,30,2,194,446.5594330912881,7.847764593504196,14.88531443637627,4.40466772,-6.863552437333334,-2.148578039444445,0.0,0.016399999999999,1.0
mp-1106080,Ba6Ir2C6N6,20,2,176,440.5359986034897,5.143294141168917,22.026799930174484,3.26985071,-7.452346738,-0.72272786675,0.0,0.6643,0.0
mp-1029626,Ba6Ir2N6,14,2,176,326.0456955295646,6.58233134377769,23.28897825211176,4.24624747,-6.235723642142858,-0.577124751428572,1.0,0.011199999999999,0.0
mp-1228133,Ba3Lu2Mo1O9,15,6,164,223.10914331215184,7.456486878845782,14.87394288747679,2.28486036,-7.938121983999999,-3.259615391888888,0.0,1.898299999999999,1.0
mp-6474,Ba3Mg1Nb2O9,15,6,164,214.1322118289584,5.940852812742581,14.275480788597228,2.43097144,-8.074157840000002,-3.266047576,0.0,2.647999999999999,1.0
mp-16978,Ba6Mg2Sb4O18,30,2,194,446.9882727060557,6.120756014948521,14.899609090201857,3.34611634,-6.709334508333334,-2.697531417666667,1.0,2.6494,1.0
mp-19188,Ba6Mn4O16,26,6,166,409.2430451726671,5.273663793647016,15.740117122025657,1.65194271,-7.32473036423077,-2.427450099297083,0.0,1.6908999999999992,1.0
mp-20921,Ba12Mn4Nb8O36,60,6,164,878.7516723145294,6.022157852216238,14.645861205242158,3.01115303,-8.437679266333333,-3.127465983862069,0.0,1.7737999999999992,1.0
mp-17341,Ba6Mn2Sb4O18,30,4,15,460.93237630136986,6.156306305601205,15.364412543378997,4.11108756,-7.075576303666667,-2.561670194528736,0.0,1.5103,1.0
mp-554339,Ba6Mo4P8O36,54,5,2,825.3386884807072,4.087254576959608,15.284049786679764,1.58471855,-7.968383527037037,-2.850849555502646,0.0,2.391499999999999,1.0
mp-8863,Ba24Mo8N32,64,3,61,1397.1161214181627,5.362230606701805,21.8299393971588,2.39093325,-7.266317900625001,-1.021857161875001,0.0,1.9187999999999992,0.0
mp-1214668,Ba6Na6C10O30,52,2,186,691.6966661971969,3.749829810110296,13.30185896533071,0.55084542,-7.378411465769231,-2.372841092947613,0.0,0.007099999999999,1.0
mp-556316,Ba6Na2Bi2O12,22,6,167,397.0311858858644,6.189497901952573,18.04687208572111,1.8782404,-6.133820072727272,-2.435961351034482,0.0,1.7096,1.0
mp-9745,Ba6Na2Ru2O12,22,6,167,366.447204698314,5.728096149603655,16.656691122650635,2.82220823,-6.632766246818182,-2.445419504216302,0.0,0.528099999999999,1.0
mp-1190024,Ba6Na2Sb2O12,22,6,167,379.0198026855575,5.7193790759259056,17.228172849343522,2.43581612,-6.368444388636363,-2.648861400579937,0.0,2.8068,1.0
mp-1214502,Ba3Nb2Cd1O9,15,6,164,228.25145772589224,6.214336688478525,15.216763848392816,1.91289671,-7.782821966666668,-3.019409024333334,0.0,2.8138,1.0
mp-1214516,Ba12Nb8Ni4O36,60,6,164,849.6242205368007,6.257972418634224,14.160403675613344,2.4055464,-8.097179164166667,-3.012424455833333,0.0,2.680799999999999,1.0
mp-7249,Ba3Nb2Zn1O9,15,6,164,215.30897722068136,6.225391844031455,14.353931814712093,2.11558013,-7.854704578666667,-3.071309408333333,0.0,2.7287,1.0
mp-6101,Ba3Nb6Si4O26,39,2,189,557.8756216282112,4.458099829156638,14.304503118672082,1.00711561,-8.800221275128207,-3.243477344102567,0.0,2.281,1.0
mp-18177,Ba12Nb4As12O4,32,3,62,1049.8912716205623,4.717378311949632,32.80910223814257,2.01428731,-5.865816620937499,-1.5137468131249991,0.0,1.255,1.0
mp-1195,Ba6P28,34,4,14,888.0284343553575,3.162453986024103,26.11848336339287,3.16383658,-5.304524830588235,-0.50608046735294,0.0,1.8930999999999991,0.0
mp-32606,Ba24P16,40,1,122,1452.1553993869104,4.335496485901339,36.30388498467276,2.56300498,-4.298713955000002,-0.981139580857144,1.0,0.250799999999999,0.0
mp-14289,Ba6P8,14,3,43,430.26709162371327,4.136235979382881,30.73336368740809,3.41340133,-4.865465115714282,-0.948490984081629,1.0,0.483899999999999,0.0
mp-1205571,Ba3Pu1O6,10,0,225,187.8319152700342,6.647900321439699,18.783191527003417,4.6347384,-8.014940303,-2.996677969874999,0.0,0.3789,1.0
mp-1105268,Ba6Rh2C6N6,20,2,176,441.3223100953963,4.46203535568454,22.06611550476981,3.246934399999999,-7.268249086500001,-0.686042846250001,0.0,0.626599999999999,0.0
mp-1029537,Ba6Ru2N6,14,2,176,331.325109393483,5.563823689535102,23.666079242391643,3.81071235,-6.329782614285713,-0.6089025292857131,1.0,0.6312000000000001,0.0
mp-29911,Ba12Sb8O4,24,3,55,831.5315286764506,5.363850240109869,34.647147028185444,3.40761221,-4.835863575416667,-1.6753821912500002,0.0,0.359399999999999,1.0
mp-1195624,Ba12Sb8S28,48,4,15,1457.6758543085589,4.009674196276463,30.36824696476164,4.20080223,-5.097484278333334,-1.515530588958332,0.0,1.9021999999999992,0.0
mp-1194583,Ba12Sb8Se28,48,4,15,1629.8010343031842,4.924032147137038,33.95418821464967,2.21281598,-4.652535036458333,-1.44534273282552,0.0,0.9106,0.0
mp-555414,Ba12Sb16O4,32,4,14,1121.3922101584567,5.419788392220981,35.04350656745177,3.80344864,-4.765764786875,-1.363153438749999,0.0,0.301299999999999,1.0
mp-1214632,Ba12Sb4I12,28,0,214,1433.4893870293204,4.237177578486236,51.19604953676144,1.99773715,-3.845136383571429,-1.779712968571429,0.0,1.4021,0.0
mp-12814,Ba6Sb2N2,10,2,194,339.61884922233,5.356336708477919,33.961884922233,3.31896332,-4.570453706999999,-0.925612945999998,1.0,0.455499999999999,0.0
mp-569842,Ba12Si4I8,24,3,70,1079.5160645788003,4.269347398452383,44.979836024116686,3.23691166,-3.618757122083332,-1.247045775416666,0.0,0.2502,0.0
mp-755363,Ba12Si4O4,20,3,62,630.4347580643596,4.805034837985734,31.52173790321798,3.07219881,-4.5428334790000005,-1.316792708000001,0.0,0.421699999999999,1.0
mp-1191360,Ba6Sm2In2S12,22,6,167,611.5840628499842,4.721902261789785,27.7992755840902,2.76530986,-5.510097588181818,-2.049657396969696,0.0,1.9722,0.0
mp-2205007,Ba6Sn4O14,24,1,139,375.2053554160523,6.7393981100416624,15.633556475668849,5.68867721,-16.751405289583335,-2.520216380833334,0.0,2.4833,1.0
mp-770846,Ba6Sn4O14,24,3,63,384.566755701861,6.575342838861556,16.023614820910876,3.30782364,-6.70320527375,-2.668888976666666,0.0,1.820699999999999,1.0
mp-556291,Ba12Sn8S28,48,4,14,1429.020892697478,4.061723755049394,29.771268597864125,2.17603997,-5.145085680416666,-1.583036888541665,0.0,2.3703,0.0
mp-1214485,Ba3Ta2Co1O9,15,6,164,202.90114683405315,7.994149610878898,13.52674312227021,2.6753925,-8.57450195533332,-3.164112243977765,0.0,2.229399999999999,1.0
mp-1214505,Ba12Ta8Mn4O36,60,6,164,869.85550081044,7.42830513736294,14.497591680174,3.03439264,-8.819092332,-3.273462715839848,0.0,2.3396,1.0
mp-1195068,Ba12Ta8Se36,56,4,14,1661.7346515426332,5.933794719184651,29.673833063261306,3.40275675,-5.930267539107144,-1.576411595947172,1.0,1.202,0.0
mp-1228489,Ba6Ta8Ti8O42,64,4,15,862.651596393793,6.403175857705355,13.478931193653017,4.16925857,-9.388966591875,-3.491660836802084,1.0,2.1932,1.0
mp-1228225,Ba6Ta8Ti2O30,46,4,7,650.4202548218753,7.269128159335929,14.13957075699729,2.06907378,-9.344799995217391,-3.460472078594203,0.0,2.3532,1.0
mp-1228561,Ba6Ta12Fe4O42,64,4,15,893.0863347093449,7.234065451763633,13.954473979833514,3.93330237,-9.35688126359375,-3.175452713562501,1.0,2.2005999999999992,1.0
mp-18090,Ba12Ta4As12O4,32,3,62,1038.73535593784,5.331020730084488,32.4604798730575,2.04653414,-6.111102600312499,-1.538329979666666,0.0,1.3151,1.0
mp-1195508,Ba18Ta6N18Cl12,54,2,185,1299.9975212537909,5.409701559340156,24.074028171366496,2.63614245,-6.974145555555555,-1.825726533592592,0.0,1.9944,0.0
mp-554264,Ba12Tb8P16S64,100,3,60,2596.2951919657785,3.496627944321598,25.962951919657783,3.39584312,-5.610727216500001,-1.49439524657619,0.0,2.4175,0.0
mp-1228418,Ba6Tb4W2O18,30,5,2,486.2607380530605,7.223680931379778,16.20869126843535,2.44972093,-8.094538717333332,-3.259709961222221,0.0,2.3808,1.0
mp-17009,Ba6Te4O18,28,2,194,432.8007042420203,6.224522097447718,15.45716800864358,2.81225126,-6.429251879285716,-2.3881671898809542,1.0,2.381599999999999,1.0
mp-1095255,Ba3Th1Se7,11,3,44,356.2874651212666,5.577608409489746,32.38976955647878,2.19259707,-5.360265559090914,-1.938250703309663,0.0,0.923,0.0
mp-1228231,Ba6Ti2Fe4O18,30,2,186,407.7128467307327,5.82846405382256,13.590428224357757,2.8083063900000003,-7.620279072333333,-2.612005185555555,0.0,0.2463,1.0
mp-1190457,Ba6U2Ag2S12,22,6,167,616.0490372914554,5.12283024525727,28.002228967793428,3.70971314,-5.968600060454546,-1.903015522878786,0.0,0.6431,0.0
mp-1228523,Ba6U2Fe4O18,30,3,71,423.7006679489455,7.09907361506149,14.123355598298184,3.56865649,-8.122712610666666,-2.888044190999998,0.0,1.0145,1.0
mp-1228397,Ba6U2In4O18,30,3,71,481.0478026313549,7.067052578606059,16.034926754378496,3.69613226,-7.443813359666667,-2.970591268888888,1.0,1.5562,1.0
mp-1228744,Ba6V8P12O48,74,4,4,1021.181548654153,3.855717706790956,13.799750657488554,2.37714016,-8.15382076608108,-2.928511188455598,0.0,2.037899999999999,1.0
mp-505392,Ba6V8O26,40,4,15,680.781534033887,4.018473045779598,17.019538350847178,-0.45521245,-8.14393954175,-2.8231374335,0.0,2.9577,1.0
mp-14743,Ba24W8N32,64,3,61,1410.5020155335656,6.139197111138082,22.03909399271196,2.24724292,-7.593026726406251,-1.08450597265625,1.0,2.03,0.0
mp-1228052,Ba6Y4Mo2O18,30,3,71,483.2792941208593,5.701856516658364,16.109309804028644,2.57289569,-8.103173848333334,-3.159680050000001,0.0,1.569,1.0
mp-1228087,Ba6Y4W2O18,30,3,71,469.12789627183776,6.496121813850662,15.637596542394592,2.489576,-8.330977561333333,-3.246651754999999,0.0,2.3881,1.0
mp-560544,Ba6Zn10In4O22,42,0,216,624.1079566386512,6.091077638976975,14.85971325330122,2.32697244,-5.611464288333333,-2.182818506825396,1.0,1.772599999999999,1.0
mp-1214487,Ba6Zn2Sb4O18,30,2,194,449.2934044927083,6.393184777789698,14.97644681642361,5.05394167,-6.479014764,-2.491926767000001,1.0,1.968499999999999,1.0
mp-755895,Ba3Zr2O7,12,1,139,194.5906578283986,6.028274898220201,16.21588815236655,2.05491412,-8.310184575000001,-3.519513482083334,0.0,2.6976,1.0
mp-8570,Ba12Zr8S28,48,1,136,1299.9122459952446,4.184248212763276,27.08150512490093,2.827465499999999,-6.4672450475,-2.148841459791666,0.0,1.005799999999999,0.0
mp-569563,Ba6Zr12Be2Cl36,56,6,167,1500.7228016512338,3.555142048783728,26.798621458057745,3.15622674,-5.646074778035714,-2.286920782857142,0.0,1.0135,0.0
mp-757840,Ba12Pt9O27,48,5,1,775.501167767512,8.213101218891854,16.156274328489832,3.33759946,-6.476503855624995,-2.075194557812495,0.0,1.5148,1.0
mp-556896,Ba8Ag2Au2O12,24,3,63,460.0820199929029,6.858530176231176,19.170084166370952,2.07613024,-5.820135315833333,-2.196761526805555,0.0,1.8623,1.0
mp-8300,Ba4As2O1,7,1,139,235.50147082524893,5.04258213607348,33.643067260749845,2.333277299999999,-4.715187595714282,-1.577458191428567,1.0,0.669299999999999,1.0
mp-1228030,Ba4Bi2O1,7,1,107,269.7160781941889,6.053607445196198,38.53086831345557,2.95058836,-4.433393517142856,-1.518546462142857,1.0,0.2841,1.0
mp-561553,Ba4Ce1Mn3O12,20,6,166,292.8375586346321,5.932665701603361,14.641877931731605,2.6661035,-7.799968103999999,-2.776246725689655,0.0,1.9704,1.0
mp-1106249,Ba4Co1Re2O12,19,6,166,265.011087653419,7.347722030461766,13.947951981758894,2.51590114,-7.842747662631579,-2.627954138684211,0.0,1.536,1.0
mp-14002,Ba32Ge8As32,72,0,218,2470.6372984479585,4.955514683709652,34.31440692288831,2.36494118,-4.412215788055556,-0.9700582608333332,1.0,0.8220000000000001,0.0
mp-14215,Ba32Ge8P32,72,0,218,2312.636307774129,4.284293261651865,32.11994871908512,2.80086228,-4.690678046388888,-0.917253411230157,0.0,1.0088,0.0
mp-1193666,Ba8In4Te4S10,26,1,127,809.7060206584814,4.899216228451936,31.14253925609544,3.05809004,-4.816419389615385,-1.726215014935897,1.0,2.0642,0.0
mp-1195568,Ba16In4Ag4S24,48,4,14,1389.7282745688326,4.6092395718396855,28.95267238685068,2.82942686,-4.97557198375,-1.7998912681944432,1.0,1.6864,0.0
mp-1228129,Ba4In1Sb1O8,14,3,65,241.66744768800976,6.279436677754012,17.261960549143556,2.84622777,-6.547581364999999,-2.679884023333332,0.0,2.3682,1.0
mp-1214461,Ba4Li1Bi3O12,20,0,229,322.2202939829663,7.086906498027414,16.111014699148317,3.08621092,-6.2276484165,-2.196125535666667,0.0,0.5661,1.0
mp-7971,Ba4Li1Sb3O12,20,0,229,290.95633620145327,6.355065074542673,14.547816810072664,3.43861072,-6.624656933,-2.557289012666666,0.0,1.454399999999999,1.0
mp-1192557,Ba8Li4Cd6As12,30,3,63,836.1940811512778,5.36155201498658,27.87313603837593,2.64837264,-3.640156404666667,-0.813855654111111,1.0,0.349899999999999,0.0
mp-1192527,Ba8Li4Cd6P12,30,3,63,769.064748440144,4.690857103168819,25.635491614671466,3.17347896,-3.888678471,-0.7642373233015861,0.0,0.4853,0.0
mp-6011,Ba16Li4Mo8N28,56,4,13,1044.7410963735722,5.379737215441115,18.65609100667093,2.60729797,-7.387606126607141,-0.984458479345236,0.0,1.842999999999999,0.0
mp-18274,Ba8Li2Nb6O24,40,2,186,582.3421567351171,5.856724405126423,14.558553918377928,2.03933289,-8.16984360675,-3.206630116416666,1.0,2.579799999999999,1.0
mp-6665,Ba16Li4W8N28,56,4,13,1074.0507318494342,6.320114522529251,19.179477354454185,2.39008809,-7.759125802678571,-1.054195281130952,0.0,2.050699999999999,0.0
mp-1019517,Ba8Mg2Si4N12,26,3,70,471.756100384522,5.025194034876678,18.14446539940469,3.80578788,-6.480135082307692,-1.081160289615384,0.0,1.6168,0.0
mp-1228584,Ba4Mg1Ta10O30,45,3,44,626.4522508005355,7.589159252574356,13.921161128900788,1.814361809999999,-9.561382000666669,-3.418838103962962,0.0,2.4682,1.0
mp-9705,Ba4Na1B3N6,14,0,229,255.16839011692525,4.482260133809282,18.22631357978037,2.22650252,-6.772734400714287,-1.123772806348522,0.0,2.0441,0.0
mp-559352,Ba4Na1Bi3O12,20,0,229,329.17452926872045,7.018145385418196,16.458726463436022,2.62489008,-6.1856220445,-2.182459268068965,0.0,0.2816,1.0
mp-6273,Ba4Na1Sb3O12,20,0,229,297.74533893108355,6.299665564891319,14.887266946554178,3.34454889,-6.578552783499999,-2.539544967568964,0.0,1.5158,1.0
mp-1228131,Ba4Nb2W1O12,19,6,160,284.8505308412696,6.476315076928309,14.992133202172084,1.90596596,-8.377728264736842,-3.103403415789473,1.0,2.7361,1.0
mp-1022809,Ba16Nb4Fe4O32,56,4,14,958.911314866053,5.721888479021492,17.123416336893804,1.788163669999999,-7.606661243035714,-2.904453096607143,0.0,2.7302,1.0
mp-28164,Ba8P4O2,14,3,64,455.71194291821166,4.571226724273718,32.550853065586544,2.3594111,-4.858491815,-1.507804984183673,1.0,1.0411,1.0
mp-28823,Ba32P24,56,3,55,1940.708121185392,4.3961142120278645,34.65550216402486,2.7206393,-4.421403233392858,-1.003928899668367,0.0,0.7701,0.0
mp-782050,Ba8Pd2O12,22,6,167,390.54972946534286,6.392362556365387,17.752260430242856,2.35820574,-6.289432426363636,-2.421837189999999,1.0,1.273,1.0
mp-8727,Ba8Pt2O12,22,6,167,392.1230678675347,7.117652000972757,17.82377581216067,2.92278807,-6.416324025909094,-2.467705925000003,0.0,1.8103999999999991,1.0
mp-1228183,Ba4Re2Ni1O12,19,6,160,282.09665294688773,6.901285774804029,14.847192260362512,2.18984871,-7.749071405263158,-2.605503146578947,0.0,1.8907,1.0
mp-9774,Ba4Sb2O1,7,1,139,259.7620242147456,5.170461309333541,37.10886060210652,2.9419720700000003,-4.63434537142857,-1.6512220507142832,1.0,0.6382000000000001,1.0
mp-801028,Ba8Sb4O18,30,2,194,535.5749667104091,5.80919804870167,17.85249889034697,5.05709114,-6.680323711999999,-2.6492869596666653,1.0,2.8294,1.0
mp-28238,Ba16Sb16Se44,76,3,58,2407.53278062389,5.255461820061556,31.678062902945925,3.89653007,-4.603634119868421,-1.306427226488487,1.0,1.138399999999999,0.0
mp-1228084,Ba4Sc2Cu2O9,17,3,69,275.2873616882489,5.490987201006216,16.193374216955817,2.25957844,-7.10755536882353,-2.80926711264706,0.0,0.5834,1.0
mp-30101,Ba16Si12Br8,36,4,14,1184.8326353365874,4.447635864594003,32.91201764823854,3.53327172,-4.147480162499998,-1.122397171388887,0.0,0.432199999999999,0.0
mp-14001,Ba32Si8As32,72,0,218,2429.8277940255766,4.795156075045837,33.74760825035523,2.71562834,-4.526172929444439,-0.9948720494444392,1.0,1.0362,0.0
mp-14214,Ba32Si8P32,72,0,218,2261.161950586033,4.120065900140862,31.40502709147269,2.9612279,-4.832435976944445,-0.969867989007936,1.0,1.0893,0.0