material_id,composition,nsites,crystal_system,space_group,volume,density,density_atomic,efermi,energy_per_atom,formation_energy_per_atom,is_gap_direct,band_gap,is_oxide
mp-1113046,Cs2K1In1Br6,10,0,225,407.8961888244725,3.66043062327514,40.78961888244725,-0.82756999,-3.298167038,-1.7453492563227,1.0,2.3584,0.0
mp-572298,Cs4K2Mn6F24,36,4,15,638.221245924545,3.630606315815386,17.72836794234847,0.04966957,-5.925326223611112,-2.958681821408525,0.0,0.810199999999999,0.0
mp-560861,Cs2K1Mn1F6,10,1,139,196.02478412073387,4.013910600488281,19.60247841207339,-0.40957645,-5.34270701,-2.983461569449137,0.0,1.7435,0.0
mp-561561,Cs2K1Rh1F6,10,0,225,197.3869952378786,4.389741030554179,19.73869952378786,0.51287658,-4.819195582,-2.639720883656034,1.0,2.101299999999999,0.0
mp-1112710,Cs2K1Sc1I6,10,0,225,498.6199352419907,3.700902317308783,49.861993524199065,0.4075,-3.482100328,-1.639713362156034,0.0,2.3591,0.0
mp-1213735,Cs2La10Ru2I17,31,4,12,1368.5286643671343,4.870952021912913,44.14608594732691,4.86601145,-4.634156259677419,-1.549219300784205,0.0,0.0035,0.0
mp-1111848,Cs2Li1Ce1Br6,10,0,225,369.3712906453785,4.011371762223144,36.93712906453785,2.19666667,-4.080962559,-2.132611850264368,0.0,0.2909,0.0
mp-1112624,Cs2Li1Gd1Cl6,10,0,225,303.8073981630197,3.512954311167277,30.38073981630197,-0.64583333,-5.372070982999999,-2.482845278264368,1.0,2.782,0.0
mp-989405,Cs2Li1In1Br6,10,0,225,341.24210917394936,4.218931981310846,34.12421091739493,0.14427298,-3.332439542999999,-1.701866446931034,1.0,1.318,0.0
mp-18722,Cs8Li4Mn4O16,32,3,36,626.1742792153523,4.154833555272912,19.56794622547976,1.09877833,-5.966675541875,-1.88183337694684,0.0,1.818,1.0
mp-573030,Cs4Li2Nb2S8,16,5,2,517.5907132718243,3.169185941430116,32.349419579489016,0.50775897,-5.28896612125,-1.491513456580459,0.0,2.4582,0.0
mp-1112834,Cs2Li1Nd1I6,10,0,225,460.1980834128085,4.252111686883407,46.01980834128084,0.8075,-3.435626035,-1.671915922014368,1.0,2.9743,0.0
mp-1113008,Cs2Li1Pr1I6,10,0,225,463.79916774634745,4.207158973151472,46.37991677463474,0.78083333,-3.43708473,-1.670642214431034,1.0,2.960899999999999,0.0
mp-1226312,Cs2Li1V3F12,18,6,166,298.01127605244045,3.641665333299292,16.55618200291336,2.102965799999999,-6.225474591111111,-3.228650995702426,1.0,2.163399999999999,0.0
mp-510338,Cs4Li2V2S8,16,3,70,514.4434748556815,2.917662755867517,32.152717178480096,0.46980156,-5.125186450625,-1.454908657205459,1.0,1.5877999999999992,0.0
mp-1195667,Cs8Mg4Ge12Se32,56,3,19,1893.353603018135,3.998287018480614,33.80988576818098,0.8645955200000001,-4.216589168214286,-0.982103415218596,1.0,1.4687,0.0
mp-1195633,Cs8Mg4Sn12Se32,56,3,19,2131.4275062781826,3.982393736084318,38.06120546925326,2.3060305,-4.116384246071429,-1.013353350218596,1.0,1.4299,0.0
mp-2884,Cs4Mn6S8,18,3,72,500.5668097699611,3.707998303331973,27.80926720944228,3.0347527,-15.316018411666668,-1.270806594410918,0.0,0.409699999999999,0.0
mp-556529,Cs8Mn4Bi8S20,40,3,62,1241.6718110148208,4.809265409329641,31.04179527537052,3.90054709,-4.93724162475,-0.992257935724138,1.0,0.8597999999999991,0.0
mp-600186,Cs8Mn4Br16,28,3,62,1117.2483742546233,3.807035351734129,39.90172765195083,-0.21680644,-4.231480440714287,-1.727800930320198,0.0,2.6151,0.0
mp-1025252,Cs2Mn1Cl4,7,1,139,224.45757030811163,3.422029941389792,32.06536718687309,1.39948301,-14.774618332857145,-1.987476009211824,0.0,1.2335,0.0
mp-1205772,Cs2Mn1Cl6,9,0,225,271.06588978204536,3.267997717951813,30.11843219800504,-0.65486921,-13.009416804444443,-1.696653019942529,0.0,1.342299999999999,0.0
mp-555223,Cs2Mn1F5,8,1,123,171.79439807986878,4.018490249696171,21.4742997599836,-0.10760909,-5.5449619225,-2.9765578840301723,0.0,1.3155,0.0
mp-505300,Cs8Mn4O16,28,3,62,590.675384391784,4.326482476866932,21.095549442563712,0.63024248,-6.124286465357143,-1.7285986863916252,0.0,0.6356,1.0
mp-505034,Cs4Mn2S4,10,3,72,334.5696733583736,3.820468986199854,33.45696733583736,2.63146687,-17.513562005,-1.319514237021553,0.0,1.1924,0.0
mp-15126,Cs16Mn8Si40O96,160,3,61,2730.22045116263,3.178096638378945,17.06387781976644,3.23695012,-7.8972174091875,-3.023212777049569,1.0,2.4585,1.0
mp-22235,Cs4Mn2Sn2Te8,16,3,70,701.6585999653698,4.495855654929207,43.853662497835614,1.71294626,-4.258053828125,-0.8129580954885051,0.0,0.3822,0.0
mp-610744,Cs4Mn2Te4,10,3,72,447.8726228907591,4.270793439780648,44.78726228907591,2.18923075,-24.277363095,-1.130425235896555,0.0,1.0568,0.0
mp-1214995,Cs8Mo12P12O68,100,4,14,1631.4408079503871,3.739700149566892,16.31440807950387,0.88741408,-7.7812100951,-2.3926235698295573,1.0,2.2994,1.0
mp-18353,Cs4Mo6Se2O24,36,2,173,580.0416801045106,4.721224356135626,16.112268891791963,0.51389579,-7.369369590555556,-1.968016867869673,0.0,2.4983,1.0
mp-560635,Cs8Mo4S16,28,3,62,962.6527121610712,3.3810001822702143,34.38045400575254,0.49428329,-16.66508330785714,-1.175243055178571,1.0,1.735799999999999,0.0
mp-866654,Cs8Mo4Se16,28,3,62,1055.5781285492235,4.263696401057949,37.69921887675798,1.76744466,-4.941802681428571,-1.135338229812192,1.0,1.224,0.0
mp-504852,Cs8Na12In4O16,40,4,14,786.5286297984863,4.337265688034061,19.66321574496216,1.6929101800000002,-4.45314455575,-1.613931031761493,0.0,2.428599999999999,1.0
mp-562541,Cs8Na12Tl4O16,40,4,14,805.2439453110411,4.97525051961851,20.131098632776027,1.57965383,-4.222834446999999,-1.422391085678161,1.0,1.7763,1.0
mp-989642,Cs2Na1Al1H6,10,0,225,160.4560085531268,3.330576687851367,16.045600855312678,0.84859158,-3.041490223,-0.314065184818965,0.0,1.8894,0.0
mp-1197430,Cs8Na4As28,40,4,14,1350.1549077645575,4.000834270108674,33.753872694113944,1.60841543,-3.930116762249999,-0.345263397568965,1.0,1.4374,0.0
mp-1110566,Cs2Na1As1Br6,10,0,225,360.6457263484521,3.88214034721374,36.06457263484521,-0.42281781,-3.316161395999999,-1.5512136298189652,0.0,2.559,0.0
mp-1079458,Cs2Na1Ce1Cl6,10,0,225,343.03321229138083,3.105994996861796,34.303321229138085,2.86335249,-4.480264822,-2.461676563068965,0.0,0.3601,0.0
mp-1112656,Cs2Na1Ce1I6,10,0,225,497.57799560521465,3.972466408061819,49.75779956052146,2.67946585,-3.495044934,-1.6711747860689652,0.0,2.3813,0.0
mp-558211,Cs4Na2Co2F12,20,6,166,347.34605819497705,4.414682124281374,17.36730290974885,-0.8054026,-4.883175574000001,-2.7057548850689663,0.0,2.801,0.0
mp-1213705,Cs4Na2Ga2P4,12,3,72,364.7087301229971,3.82885733991582,30.392394176916422,4.13969858,-3.260844458333333,-0.424724626245894,0.0,1.482,0.0
mp-996943,Cs2Na1In1Br6,10,0,225,366.1844609507666,4.004339376709322,36.61844609507666,-0.306342,-3.290426344,-1.716573456735632,1.0,1.8935,0.0
mp-989571,Cs2Na1In1Cl6,10,0,225,311.0091677611149,3.290742620853292,31.10091677611149,-0.31367721,-3.7146118649999993,-2.013801218735632,1.0,2.9904,0.0
mp-989610,Cs2Na1In1H6,10,0,225,173.60215986430234,3.918539479411219,17.360215986430234,1.14026576,-2.817228802999999,-0.188443973485631,0.0,1.255799999999999,0.0
mp-1111979,Cs2Na1Rh1F6,10,0,225,175.87619707692917,4.774545738899108,17.587619707692916,0.67669327,-4.82069209,-2.620182286068965,1.0,1.9082,0.0
mp-1112141,Cs2Na1Sc1I6,10,0,225,434.82083950881565,4.182400345120723,43.48208395088157,0.97416667,-3.471994257000003,-1.608572185568968,0.0,2.2294,0.0
mp-1112527,Cs2Na1Tl1Cl6,10,0,225,322.0087319880363,3.640205022554829,32.20087319880363,-0.61141004,-3.496559336,-1.8345188524023,1.0,1.9178,0.0
mp-23108,Cs2Na1U1Cl6,10,0,225,340.1955329443626,3.609828861317796,34.01955329443626,3.67135496,-4.795468266999999,-2.241433994068965,0.0,0.5004000000000001,0.0
mp-1201406,Cs4Nb6Cl14O10,34,4,15,860.9527882600385,3.366384811887276,25.3221408311776,-0.65525333,-6.5770219302941175,-2.47117046643002,1.0,2.3094,1.0
mp-569465,Cs2Nb6Pb1Cl18,27,6,148,728.2296593221475,3.804817254946941,26.971468863783244,2.45250064,-5.477951457037039,-1.796092092196679,0.0,1.0644,0.0
mp-623028,Cs4Nb2Ag2S8,16,3,70,547.8138817124009,3.606203484120718,34.238367607025054,0.78518747,-5.204158778125,-1.289954261997126,0.0,2.2195,0.0
mp-14637,Cs4Nb2Ag2Se8,16,3,70,600.6198226621648,4.326357650983168,37.5387389163853,0.69667409,-4.786953308749999,-1.193972837544,0.0,1.8213,0.0
mp-15223,Cs4Nb2Cu2Se8,16,3,70,568.608805807312,4.31104592618986,35.538050362957,1.29466098,-4.968654821249999,-1.218640726085667,0.0,1.635099999999999,0.0
mp-8995,Cs2Nb1F6,9,6,164,173.19296176805963,4.532225789668382,19.24366241867329,2.34789504,-13.603378148888888,-3.191472776666665,0.0,0.247799999999999,0.0
mp-557503,Cs4Ni2N8O24,38,5,2,644.934879115812,2.948199390690797,16.971970503047686,-0.58425138,-6.481493062105263,-1.20124385891107,0.0,2.9547,1.0
mp-28486,Cs4Ni6S8,18,2,194,450.8532591590667,4.199850671994293,25.047403286614816,3.47529785,-4.9316231550000005,-0.963867216034482,0.0,0.9065999999999992,0.0
mp-14336,Cs2Ni3Se4,9,3,69,242.05498992502328,5.198166334962072,26.89499888055814,3.1075746,-16.708383490000003,-0.7741281118055571,0.0,0.6160000000000001,0.0
mp-1206689,Cs4Ni2As4,10,3,63,324.6875594984761,4.851880142379085,32.46875594984761,3.22708766,-3.782735843999998,-0.395468466862067,0.0,0.5567000000000001,0.0
mp-689925,Cs2Ni1F6,9,0,225,173.8457012170175,4.188413132692228,19.31618902411305,-2.75247154,-11.461283275555555,-2.466306513333333,0.0,2.4357,0.0
mp-755100,Cs2Ni1O2,5,1,139,131.73873088519676,4.493646836023798,26.34774617703935,0.95445764,-4.743848402999999,-1.245445636862069,0.0,2.6343,1.0
mp-573103,Cs8Np4S8O40,60,4,14,1142.6962898947484,4.22545804098549,19.04493816491248,1.42779279,-7.317131868666666,-2.48246093487069,1.0,0.213099999999999,1.0
mp-647426,Cs2Np1Br6,9,0,225,348.91437613580405,4.674612288555177,38.768264015089336,0.9583052,-4.699274634444448,-1.967561964228931,0.0,0.091099999999999,0.0
mp-1025274,Cs2Np1O4,7,1,139,142.12846086331908,6.622232156204992,20.30406583761701,3.68503303,-7.780214509999999,-2.843703246865764,0.0,0.2765,1.0
mp-7988,Cs2O1,3,6,166,102.22237851217304,4.577833402444146,34.07412617072435,1.61294492,-3.434885260000001,-1.180246544770117,0.0,0.583199999999999,1.0
mp-7896,Cs2O2,4,3,71,105.42063966239483,4.690966106411125,26.35515991559871,2.45455361,-4.152192639999999,-1.224223352327586,0.0,1.6496,1.0
mp-1205610,Cs4P4Pd2,10,3,63,322.95308103275084,4.464860585514918,32.29530810327508,2.86803866,-4.073393462000001,-0.508036661719212,0.0,1.0311,0.0
mp-14652,Cs4P6,10,3,69,362.4983360077176,3.28657406911343,36.249833600771765,2.84866698,-16.030519819,-0.585892831785713,1.0,0.8470999999999991,0.0
mp-1199678,Cs4P8Pd6O28,46,3,36,831.3542112571885,3.726961242911482,18.072917636025835,2.08226238,-6.89598581,-2.187770647299206,1.0,1.3628,1.0
mp-1196015,Cs8P4Au4S16,32,3,57,1067.0670288470928,3.871824083499116,33.34584465147165,1.11485646,-4.4213481153125,-1.03900449830665,1.0,2.1538,0.0
mp-569060,Cs4P2Se10,16,5,2,587.2851444356495,3.910888488507438,36.705321527228094,0.78112688,-17.12433855,-0.777240616661085,0.0,1.4824,0.0
mp-2647097,Cs4Pb2I4Cl4,14,1,139,648.2370343292783,4.086946156777206,46.302645309234165,0.38097429,-3.462718588571428,-1.709331011330049,1.0,2.9646,0.0
mp-1213706,Cs4Pb4O6,14,0,199,379.9772810678984,6.364694552870376,27.14123436199274,2.21409417,-4.963991462857142,-1.523258277758619,1.0,2.0761,1.0
mp-23425,Cs2Pb1Cl6,9,0,225,293.46134697481983,3.880169043026973,32.60681633053554,-0.80056854,-3.588719168888886,-1.742068167701147,1.0,1.4541,0.0
mp-989549,Cs2Pb1Cl1F6,10,0,225,246.22253697081163,4.197868047465062,24.622253697081163,-1.00929158,-4.153189575,-2.267163648931034,0.0,0.098999999999999,0.0
mp-562263,Cs8Pb4O8,20,5,2,578.1337732483663,5.802036697909616,28.906688662418315,2.15524676,-4.566295695999997,-1.481390851862066,1.0,1.8593,1.0
mp-21283,Cs4Pb2O6,12,3,63,272.480112897268,6.350232035028116,22.70667607477233,1.85936268,-4.932349795833336,-1.536935591551725,1.0,1.3724,1.0
mp-543024,Cs2Pd1I2Br4,9,1,139,345.5007373994693,4.544993113496317,38.38897082216326,0.72239961,-3.115345201111111,-1.271828721034483,0.0,0.723599999999999,0.0
mp-607298,Cs2Pd1I2Cl4,9,1,139,318.67172246717365,4.001133122572818,35.407969163019295,0.8450122,-3.375259207777778,-1.437699943256705,0.0,0.9218,0.0
mp-510268,Cs2Pd3S4,9,3,69,244.1797066782508,4.850992120871818,27.131078519805644,2.14968105,-17.688174718888888,-0.8839232568055561,0.0,1.3815,0.0
mp-11694,Cs2Pd3Se4,9,3,69,266.7116461164497,5.60904547314984,29.634627346272183,1.81976911,-20.457282626666668,-0.8634484318055541,0.0,0.986699999999999,0.0
mp-1205847,Cs2Pd1Br6,9,0,225,311.1163006538911,4.545587087687292,34.568477850432345,-0.5399887800000001,-3.235568791111108,-1.366955884367812,0.0,0.756,0.0
mp-1078085,Cs2Pd1Cl4,7,1,123,263.53198227235606,3.239031241324765,37.64742603890801,-0.99600643,-15.541671902857145,-1.572084017142858,1.0,1.839,0.0
mp-1206568,Cs2Pd1Cl6,9,0,225,274.4707014385098,3.5389223754447032,30.49674460427887,-0.85337778,-13.601160423333331,-1.368716757222222,0.0,1.3617,0.0
mp-504729,Cs2Pd1F6,9,0,225,179.395880059739,4.500602252329181,19.93287556219322,-2.23705237,-12.539973686666666,-2.32513731888889,0.0,2.306499999999999,0.0
mp-31285,Cs8Pd4Se32,44,1,142,1524.986979497323,4.372583628733966,34.65879498857553,1.09551956,-17.646942109772727,-0.5860474318181801,1.0,1.1887,0.0
mp-1213749,Cs2Pr10Co2I17,31,4,12,1300.8747996602983,5.042256815070115,41.96370321484834,3.80092551,-4.339069219354839,-1.437594457450871,0.0,0.052999999999999,0.0
mp-1213729,Cs2Pr10Ru2I17,31,4,12,1345.2316346752796,4.980022973846908,43.39456886049289,3.7043081,-4.502623870645161,-1.4630209913218382,1.0,0.0013,0.0
mp-13548,Cs4Pt2,6,2,194,230.63964162854523,6.636621423383506,38.439940271424206,1.89759569,-33.96522354666667,-0.06368258,0.0,1.6743,0.0
mp-13992,Cs2Pt3S4,9,3,69,246.6119646452656,6.594181036249544,27.40132940502951,2.895844089999999,-27.195158242222224,-0.8818190168055551,0.0,1.6386,0.0
mp-14338,Cs2Pt3Se4,9,3,69,270.23507042637664,7.170378943160853,30.02611893626407,2.44333494,-29.94171343555556,-0.838791477361111,0.0,1.3326,0.0
mp-30062,Cs2Pt1Br6,9,0,225,316.29440799930995,4.9366546968032194,35.14382311103444,-0.436494899999999,-3.3772761755555543,-1.409635323256703,0.0,1.4417,0.0
mp-505825,Cs2Pt1C2,5,6,164,146.7267939246976,5.487903367563707,29.34535878493952,2.20073198,-5.322089306,-0.05320541686207,0.0,1.2698,0.0
mp-23406,Cs2Pt1Cl6,9,0,225,276.2738925538895,4.048737765938499,30.697099172654383,-0.5846307,-16.835094882222222,-1.432955294999999,1.0,2.1146,0.0
mp-8191,Cs2Pt1F6,9,6,164,167.21660062273313,5.708880183554448,18.5796222914148,-0.82992969,-15.743344983333335,-2.358812694444446,0.0,2.6933,0.0
mp-23060,Cs2Pt1I6,9,0,225,385.9288944520864,5.2592925886137465,42.88098827245404,1.52030278,-2.962920504444443,-1.070568932145593,0.0,0.655099999999999,0.0
mp-571448,Cs2Pu1Cl6,9,6,164,296.01704326809534,4.053102680378289,32.89078258534393,0.98757093,-21.481506231111112,-2.205074282638886,0.0,0.365,0.0
mp-1112134,Cs2Rb1As1Br6,10,0,225,420.9019992314764,3.572861471003119,42.09019992314764,-0.82645833,-3.29941497,-1.570585874431034,1.0,2.8942,0.0
mp-1206535,Cs2Rb1Cu1F6,10,0,225,199.0430438598684,4.411699870147699,19.90430438598684,-0.84835366,-4.392687239,-2.554806225681035,0.0,0.8744000000000001,0.0
mp-1112117,Cs2Rb1Sc1I6,10,0,225,521.6399829772732,3.685189216268148,52.163998297727325,0.24122835,-3.461180559,-1.633877158181035,0.0,2.3929,0.0
mp-1202505,Cs8Re4Cl12O12,36,3,62,1000.6549417954687,4.025002053422486,27.795970605429687,-0.68162615,-5.919689428888889,-2.069291566312261,0.0,2.3472,1.0
mp-651741,Cs12Re12Se30,54,6,167,1856.7502867778785,5.543162874661183,34.384264569960706,2.4008591900000003,-5.870849501111112,-0.960656062892123,0.0,0.7173,0.0
mp-1214500,Cs16Re24Se32I24,96,4,14,3571.559385423091,5.657261180867791,37.2037435981572,1.60587024,-5.856565067187501,-1.046899940619614,1.0,2.0776,0.0
mp-567942,Cs2Re1Cl6,9,0,225,276.79745129809714,3.987825509429275,30.75527236645524,0.46930797,-17.06330373,-1.558619941944445,1.0,1.2397,0.0
mp-1205774,Cs2Re1F6,9,6,164,169.08808694656676,5.558516565742805,18.787565216285195,1.1229655,-16.226643107777775,-2.739566618055556,0.0,1.8006000000000002,0.0
mp-17546,Cs8Ru4O16,28,3,62,632.9015013828981,4.5219711879633735,22.60362504938922,1.5785664,-6.138521637857143,-1.7267785377586211,1.0,0.585599999999999,1.0
mp-540703,Cs8S4,12,3,62,491.3935080242464,4.026382662216831,40.94945900202053,1.43487357,-20.609419424166667,-1.192117730104165,1.0,2.0952,0.0
mp-1079600,Cs4S6,10,3,36,351.8730811412738,3.416714592943785,35.18730811412738,1.84171097,-15.833502491,-0.969121841687498,0.0,1.3635,0.0
mp-1193140,Cs8S20,28,3,19,929.2044401895766,3.046112503708791,33.18587286391345,1.27235871,-13.6561229875,-0.7429942145089291,0.0,1.8661999999999992,0.0
mp-1191118,Cs16Sb8,24,3,62,1187.825884244079,4.334484610070179,49.49274517683662,2.84879161,-25.868267950416666,-0.5605273737500001,0.0,0.2839,0.0
mp-1078965,Cs4Sb4Pd2,10,3,63,401.4017314333512,5.094539215877452,40.14017314333512,2.66721366,-25.531778373,-0.613780159,0.0,0.8965999999999991,0.0
mp-1080614,Cs4Sb4Pt2,10,3,63,403.1279884198894,5.803161777181482,40.312798841988936,2.9055638,-31.238055204,-0.6146043319999991,0.0,0.740699999999999,0.0
mp-27146,Cs8Sb16S28,52,4,14,1663.5277047087327,3.902200435099737,31.99091739824486,2.37709804,-16.7575646825,-0.658552182860577,1.0,1.641,0.0
mp-1226852,Cs4Sb16S26,46,5,2,1423.48201149611,3.865274965304719,30.945261119480648,2.8090984,-16.173035355869565,-0.5068431859375,0.0,1.664,0.0
mp-1112938,Cs2Sc1Ag1I6,10,0,225,426.7064421289749,4.592240908229201,42.67064421289749,1.34041667,-3.40053075,-1.386986988597701,0.0,2.0571,0.0
mp-1113068,Cs2Sc1In1I6,10,0,225,488.5512997694577,4.034538838981295,48.855129976945776,1.273385419999999,-3.448794627,-1.443627259097701,1.0,1.9467999999999992,0.0
mp-1112484,Cs2Sc1Tl1I6,10,0,225,496.6738014999957,4.268004205203559,49.66738014999957,0.7075,-3.447532894,-1.481135688764369,0.0,2.4146,0.0
mp-1011695,Cs2Se1,3,0,225,150.75814547762872,3.797509932037771,50.25271515920957,0.60717769,-22.77451832,-1.265029576354166,0.0,1.7952,0.0
mp-7449,Cs4Se6,10,3,36,391.7321954929755,4.261778295418819,39.17321954929755,1.26110201,-19.614348623,-0.9840312844375,0.0,0.7396,0.0
mp-541055,Cs8Se20,28,3,19,1037.1543444648842,4.23069225688993,37.04122658803158,1.01137219,-18.129228242857145,-0.7328415064732151,0.0,0.9618,0.0
mp-27830,Cs2Se1Cl6,9,0,225,281.27360352729465,3.291215714332314,31.25262261414385,-0.5962246800000001,-12.547136724444444,-1.2756812115624991,0.0,2.7509,0.0
mp-542550,Cs8Si8Se20,36,4,15,1307.822471055959,3.640385082329403,36.32840197377664,0.73239646,-4.4691468225,-1.119574757058788,0.0,2.515399999999999,0.0
mp-573721,Cs4Si2As4,10,3,72,361.6928321391662,4.074434890785969,36.16928321391662,2.77797397,-3.760144335999999,-0.443840688862069,0.0,1.0347,0.0
mp-8932,Cs4Si2P4,10,3,72,334.5562218589219,3.532397278048302,33.45562218589219,3.18273867,-15.995577372,-0.5966127281904761,0.0,1.2699,0.0
mp-1103520,Cs4Si2S6,12,4,12,405.3501610567181,3.196061468761071,33.77918008805984,1.18892153,-15.167341906666666,-1.318063933072916,0.0,2.9485,0.0
mp-637251,Cs4Si2Se8,14,4,12,512.4728021733085,3.951394550283617,36.605200155236325,0.85687395,-4.176096671428569,-1.143965374097903,0.0,1.9385,0.0
mp-561641,Cs4Sn2Au4S8,18,3,70,598.1569911469401,5.034243888905141,33.23094395260778,1.38629095,-4.142391771666666,-0.9283107421455932,0.0,2.0449,0.0
mp-540707,Cs4Sn2Ge6O18,30,2,176,504.8255655669113,4.910548907582482,16.827518852230376,0.91091246,-6.445824427000001,-2.16407378662069,0.0,2.6155,1.0
mp-505233,Cs2Sn1H12N6,21,6,147,257.3487208385061,3.10142867743821,12.254700992309816,0.6268427400000001,-4.990088058095238,-0.390221832824302,1.0,2.5332,0.0
mp-1193049,Cs2Sn1H6O12,21,6,147,273.02283645361297,3.543168339455922,13.001087450172044,0.7325250600000001,-5.219707631428571,-1.144847741514778,0.0,2.5642,1.0
mp-561185,Cs2Sn2Hg3S8,15,5,2,458.64733068220806,4.9294054483857135,30.576488712147203,1.29139537,-3.708749974000004,-0.7840172071206941,1.0,1.6243,0.0
mp-540796,Cs8Sn8O12,28,3,62,768.0983169843192,4.766772384559166,27.43208274943997,2.255051,-5.244965972857138,-1.719397134901473,0.0,2.5267,1.0
mp-1195304,Cs4Sn6Sb4S20,34,4,14,1049.1490013489135,3.754630639780999,30.857323569085693,4.13364712,-4.592122728235294,-0.857636324665314,0.0,1.8595,0.0