material_id,composition,nsites,crystal_system,space_group,volume,density,density_atomic,efermi,energy_per_atom,formation_energy_per_atom,is_gap_direct,band_gap,is_oxide
mp-1210079,Na1Gd1Cu2F8,12,1,97,156.3865741517155,4.877126691769266,13.03221451264296,0.28630154,-6.145979677500001,-2.902056730948276,0.0,1.0142,0.0
mp-8260,Na1Gd1S2,4,6,166,92.45172799136006,4.389161321283152,23.11293199784001,2.24016607,-17.84384432,-2.086048311406248,0.0,1.762,0.0
mp-999489,Na1Gd1Se2,4,6,166,104.14553308058224,5.391757966300892,26.036383270145564,1.80306694,-20.8551000125,-1.959023429531249,0.0,1.3585,0.0
mp-29657,Na16Ge16,32,4,14,796.9375432905721,3.188143796839254,24.904298227830377,1.2760732,-8.932604649375,-0.214525574374999,1.0,0.665199999999999,0.0
mp-14433,Na2Ge4N6,12,3,36,146.35601754020692,4.771850848615998,12.196334795017243,4.0458762,-6.317103949999999,-0.383335662729884,0.0,2.3402,0.0
mp-13674,Na8Ge8Au24,40,0,205,750.0484566210226,12.15931056903851,18.751211415525567,3.8692221,-34.10458413825,-0.266376418249996,0.0,0.0512,0.0
mp-23850,Na4H8N4,16,3,70,178.27052343055513,1.453555614526926,11.141907714409696,-0.64672542,-4.555772731875,-0.438189881594827,0.0,1.9459,0.0
mp-626000,Na2H2O2,6,4,4,57.96049869081259,2.291794032511912,9.660083115135432,-0.57422397,-4.772884358333333,-1.544601617543103,0.0,2.9879,1.0
mp-571189,Na2Hf4Cu2Se10,18,3,63,431.0389171530009,6.459073784941557,23.94660650850005,3.33353621,-6.172146197777778,-1.412716987010894,1.0,0.4817,0.0
mp-505448,Na4Hf4Cu4Se12,24,3,62,531.111030170079,6.276910779838057,22.129626257086624,3.66117813,-5.599991269583335,-1.285682784318427,1.0,0.3845,0.0
mp-23110,Na3Hg6I3O6,18,2,180,414.4402776402514,7.008601330342326,23.024459868902856,0.80526841,-3.227358541666666,-0.9971919618965532,0.0,1.388,1.0
mp-8153,Na2Hg2P2O8,14,3,63,187.5035193802315,5.642204476465247,13.393108527159391,1.11133213,-5.944463152857142,-2.107504529788881,0.0,1.4524,1.0
mp-1209969,Na1Ho1Pd6O8,16,0,200,190.21186104150755,8.332167487942636,11.888241315094222,3.54911864,-6.231671618749999,-1.444022922273704,0.0,0.0424,1.0
mp-5694,Na1Ho1S2,4,6,166,89.14248856297058,4.695168675864375,22.28562214074265,2.11831272,-15.263483725,-2.13460306265625,0.0,2.3055,0.0
mp-999474,Na1Ho1Se2,4,6,166,100.7674679851322,5.6990712432171495,25.19186699628305,1.8908047,-18.2558960675,-1.9887348307812511,0.0,1.8867,0.0
mp-1105143,Na2In2Ge4O12,20,4,15,251.90637643099623,4.997762117319644,12.595318821549814,2.2453098,-6.428372814999989,-2.124901188804586,0.0,2.3627,1.0
mp-559710,Na4In4As8O28,44,4,15,589.9050661399469,4.499904213892476,13.40693332136243,1.29497305,-6.262359146590902,-1.8917349082314447,0.0,2.3567,1.0
mp-28570,Na4In4I16,24,4,14,1059.0065530387103,4.048150607339759,44.1252730432796,0.271133299999999,-2.732236906666666,-1.032746076340995,0.0,2.478999999999999,0.0
mp-5175,Na1In1O2,4,6,166,49.5053026102216,5.695762417105993,12.3763256525554,3.6758438,-5.478102092499999,-1.978897959511493,0.0,1.9142,1.0
mp-20289,Na1In1S2,4,6,166,83.6359557073411,4.009346842222601,20.90898892683528,3.689782799999999,-11.6430967325,-1.089904453906248,0.0,1.8377,0.0
mp-22473,Na1In1Se2,4,6,166,96.18797473292786,5.105290087782719,24.046993683231964,3.04187161,-14.7006699675,-1.009197114531248,0.0,1.019199999999999,0.0
mp-1220784,Na4In4Sn8,16,3,19,480.4636115684226,5.187326197117249,30.028975723026413,5.05084282,-19.123045035,-0.214260407499999,0.0,0.6527000000000001,0.0
mp-22483,Na2In2Te4,8,1,140,254.2887752865124,5.132784596028324,31.786096910814045,3.96642617,-3.3711866025,-0.7743100253448261,0.0,0.6416000000000001,0.0
mp-1199865,Na4La4Ga16S32,56,3,70,1296.5153800491055,3.572363058905103,23.152060358019742,2.4934744,-5.014228141607143,-1.3358718192056651,1.0,2.2582,0.0
mp-569491,Na4La4Ga16Se32,56,3,70,1457.017621598871,4.8890932328432175,26.01817181426556,2.84969356,-4.522826341785724,-1.211583213580673,1.0,1.7311,0.0
mp-12337,Na2La4Os2O12,20,4,14,277.0345975398251,7.037254240222308,13.851729876991254,6.15214632,-8.0246209755,-2.811734130637931,0.0,0.518699999999999,1.0
mp-6389,Na2La4Ru2O12,20,4,14,274.8032953668443,6.016869512652854,13.740164768342217,5.53564055,-7.809778173,-2.79218781713793,0.0,0.4775,1.0
mp-569580,Na4La16I28N8,56,3,33,1993.967548950318,4.979887271570871,35.606563374112824,4.09820953,-5.291883645535714,-1.832569860277094,1.0,2.8475,0.0
mp-569905,Na1La6Os1I12,20,6,148,874.423787159957,4.87951670373645,43.72118935799785,4.12503374,-4.6189893785,-1.595325267568966,0.0,0.340899999999999,1.0
mp-675230,Na2La2S4,8,1,141,204.0633879322964,3.67850150548884,25.50792349153705,3.281881229999999,-14.469054355,-2.12431462015625,0.0,2.191,0.0
mp-999472,Na1La1Se2,4,6,166,113.85744027075836,4.66430386679665,28.46436006768959,2.55432274,-5.296193405,-1.978805695266703,0.0,2.2767,0.0
mp-865101,Na1Li2Bi1,4,0,225,84.07515459076376,4.855740482249974,21.01878864769094,2.75950734,-17.3127736225,-0.602806837083335,0.0,0.6303000000000001,0.0
mp-5077,Na1Li2Sb1,4,0,225,78.45712262019325,3.357429399603298,19.61428065504831,3.71593126,-9.21655205,-0.7055747683333331,0.0,0.6796000000000001,0.0
mp-505381,Na1Li3H8N4,16,1,82,153.088303310436,1.170417930577803,9.56801895690225,-0.73734953,-4.78137354125,-0.557440299461206,0.0,2.567599999999998,0.0
mp-8452,Na2Li2S2,6,1,129,104.1518705187862,1.976851617557677,17.358645086464367,1.39127935,-3.829716026666666,-1.366714955737547,0.0,2.264199999999999,0.0
mp-28603,Na4Li4Se4,12,3,62,231.8024974784136,3.120197208374006,19.3168747898678,0.99159548,-8.1261298775,-1.371980806076387,1.0,2.4375,0.0
mp-8754,Na4Li4Te4,12,3,62,292.20348448460896,3.580874431287207,24.350290373717414,2.24830202,-3.260567211666667,-1.129250698793103,1.0,2.284,0.0
mp-1220972,Na1Li1Zn1S2,5,6,156,93.7076125766424,2.825872675120677,18.74152251532848,3.35318957,-3.824695839999999,-1.267274561942527,1.0,1.8297999999999992,0.0
mp-9035,Na1Lu1S2,4,6,166,85.80863150258826,5.071812842223146,21.452157875647064,2.24889982,-16.5607806525,-2.132265923072916,0.0,2.399299999999999,0.0
mp-1210333,Na2Mg4S6O24,36,6,167,490.805768400802,2.434532570442861,13.633493566688944,0.03919561,-6.481564818055556,-2.237494175215517,0.0,0.000399999999999,1.0
mp-555794,Na2Mg4V6O20,32,5,2,401.633983555356,3.178722818240892,12.551061986104877,0.42332233,-7.6696321071875,-2.5862577903987063,0.0,2.8353,1.0
mp-5962,Na2Mg2As2,6,1,129,136.45331948793782,2.974571179785655,22.742219914656303,2.33059048,-8.266813655,-0.7864752741666661,0.0,0.9547999999999992,0.0
mp-7090,Na2Mg2Sb2,6,1,129,164.59947365719816,3.410971402850694,27.433245609533028,3.3123485,-2.923634650000001,-0.5565706387931041,0.0,1.0359,0.0
mp-542710,Na4Mn8O16,28,3,62,278.6511271444934,4.692598494330811,9.951825969446192,3.41722025,-7.614961488214285,-1.978162147820196,0.0,0.4046,1.0
mp-1210122,Na2Mn8As6O24,40,4,15,518.996997383756,4.220158388218096,12.9749249345939,3.84425185,-7.537054942999999,-1.968270862780172,0.0,1.1152,1.0
mp-17876,Na4Mn4As4O16,28,3,62,371.52159582560296,3.876845305719839,13.268628422342962,2.20806724,-7.017184559642857,-2.022084184901477,1.0,2.0178,1.0
mp-18641,Na3Mn3Cr3F18,27,6,150,370.1081784115855,3.283061304282934,13.707710311540202,0.12327284,-6.5646253688888905,-3.049081169923372,0.0,2.2911,0.0
mp-560242,Na4Mn4F12,20,3,62,249.6509950167216,3.589730569614404,12.482549750836082,0.90554628,-6.213123987999999,-2.964065348862068,1.0,2.7474,0.0
mp-554517,Na2Mn2F8,12,4,14,151.86163345622754,3.366123977941208,12.655136121352294,-1.41466323,-5.931858051666668,-2.905333789885058,0.0,2.0519,0.0
mp-1209999,Na3Mn3Fe3F18,27,6,150,373.0757440450615,3.308340477994067,13.817620149817092,-0.85393867,-6.242375231111111,-2.858278394367815,0.0,2.4364,0.0
mp-1205831,Na1Mn1I1O6,9,6,149,110.681718520577,4.513281771171157,12.297968724508555,1.1868053,-6.061087736666667,-1.426030546034483,0.0,2.0015,1.0
mp-18957,Na1Mn1O2,4,4,12,42.934458863710745,4.251536930987024,10.733614715927686,2.94610666,-7.125566535625,-2.025652015452586,0.0,1.222999999999999,1.0
mp-1193468,Na4Mn4V4O16,28,3,62,363.593228223254,3.523311447592582,12.985472436544786,1.84784374,-7.934464316785714,-2.308823436687192,0.0,2.3623,1.0
mp-1220983,Na1Mo2P4O14,21,5,1,286.84327803107374,3.257803432897804,13.659203715765416,2.0619942,-7.966064935714286,-2.539094975235749,0.0,1.1965,1.0
mp-1013843,Na4Mo8P8O36,56,3,62,776.9366306494229,3.597588585299477,13.87386840445398,1.94543568,-8.051297555357143,-2.451610620047502,0.0,1.807599999999999,1.0
mp-1210358,Na2Mo12O34,48,4,11,691.3220944149449,4.182414589712705,14.402543633644685,2.18828289,-8.257496319166666,-1.985373047349137,0.0,0.5921999999999991,1.0
mp-622602,Na8Mo8As8O48,72,3,29,989.2011937427573,3.892462300294932,13.738905468649406,0.26163675,-7.089072503333333,-1.917377008764368,0.0,2.6992000000000003,1.0
mp-578610,Na1Mo1O2,4,6,166,47.2610994069084,5.302940234159042,11.8152748517271,3.99394962,-7.4089926675,-1.888169442844827,0.0,2.380499999999999,1.0
mp-21798,Na8Mo8P8O48,72,4,14,968.2309951205552,3.373793604397919,13.447652710007713,0.6062574900000001,-7.599519325277778,-2.345007053724685,0.0,2.7169,1.0
mp-4531,Na2N2O6,10,6,167,120.00620150203474,2.352161255429685,12.000620150203474,-0.51481965,-6.267973277,-1.363196969275862,0.0,2.9451,1.0
mp-6181,Na2Nb2Cu4S8,16,3,40,397.41352068871095,3.102421146688985,24.83834504304444,1.88007495,-5.520923866875,-0.996564188297412,0.0,1.7198,0.0
mp-29162,Na2Nb20O36,58,4,14,725.6625049090478,5.675198728649693,12.51142249843186,4.13928268,-9.383606921034485,-2.782983842806183,0.0,0.1761,1.0
mp-672212,Na1Nb13O33,47,5,1,695.0198482830215,4.202006491714734,14.787656346447266,0.46334112,-9.31264069425532,-3.016015173752752,0.0,1.6963,1.0
mp-560032,Na4Nb8As4O32,48,4,14,659.4305884809257,4.147068957287623,13.738137260019286,0.56504114,-8.057428812916667,-2.5742503603232763,0.0,2.700199999999999,1.0
mp-560016,Na4Nb8P4O32,48,4,4,689.0225229350584,3.545306044573179,14.354635894480383,1.1398217,-8.448699555833333,-2.903408520501847,0.0,1.994399999999999,1.0
mp-557436,Na4Nb8P4S40,56,4,15,1407.34727975183,2.645003870783886,25.13120142413982,2.80606039,-5.925392900535714,-1.043721467751583,1.0,1.315599999999999,0.0
mp-559336,Na2Nb6Te8O32,48,4,11,715.4853794519887,4.957810965826818,14.905945405249764,2.64084564,-7.374246073541666,-2.233152925543582,0.0,2.1321,1.0
mp-623854,Na2Nb6O16,24,3,59,346.71803846588824,4.115969643201572,14.446584936078676,0.01455191,-8.894425686249999,-2.9586486913649424,0.0,2.4842,1.0
mp-1221019,Na1Nb4Bi5O18,28,4,8,381.8875492945732,7.51161439683841,13.638841046234756,3.17526276,-7.7903155978571474,-2.423872362906408,0.0,2.7554,1.0
mp-28178,Na4Nb4Cl24,32,4,14,856.3999448368335,2.548699990030615,26.76249827615105,-1.31491859,-9.6982993715625,-1.5466882959375,0.0,2.2152,0.0
mp-1030657,Na16Nb16N32,64,3,61,1022.6251780967384,3.738885898835273,15.978518407761538,1.37770346,-7.92741738734375,-0.897522060188578,1.0,2.2814,0.0
mp-3744,Na2Nb2O4,8,2,194,88.2693972494368,5.564450391300988,11.0336746561796,5.56852673,-7.857723646249999,-2.522986689094827,0.0,1.378099999999999,1.0
mp-4514,Na2Nb2O6,10,6,161,121.69003756668432,4.472888253079711,12.169003756668433,1.39056418,-8.102204531999998,-2.844822765275861,0.0,2.5048,1.0
mp-7937,Na2Nb2S4,8,2,194,143.95860343944022,4.153144678355541,17.994825429930028,5.66633249,-6.383159698750002,-1.453223460344829,0.0,0.6250999999999991,0.0
mp-1210002,Na2Nb2S12,16,4,9,346.70674787021386,2.953050078868104,21.669171741888366,4.89248972,-5.5411721937500005,-1.007024290797413,0.0,1.6715,0.0
mp-7939,Na2Nb2Se4,8,2,194,163.87637439545435,5.549090460693393,20.4845467994318,4.74149725,-15.41442783125,-1.184083910781248,0.0,0.5013999999999991,0.0
mp-1190450,Na2Nb2Se4O14,22,3,36,334.37346335118343,3.831977619992375,15.198793788690155,0.71274422,-6.803546222727272,-1.9789484219151632,0.0,2.9067,1.0
mp-14515,Na4Nd4Ga16S32,56,3,70,1282.707753332718,3.638451317569521,22.905495595227105,2.25826257,-4.974727582857144,-1.308361237062807,1.0,2.1699,0.0
mp-570876,Na4Nd4Ga16Se32,56,3,70,1475.8957929391413,4.850573525801689,26.35528201677038,1.78091661,-4.479869952678572,-1.180616801080665,1.0,1.5138,0.0