material_id,composition,nsites,crystal_system,space_group,volume,density,density_atomic,efermi,energy_per_atom,formation_energy_per_atom,is_gap_direct,band_gap,is_oxide
mp-1095254,Eu2Mo2O8,12,1,88,166.7662963154309,6.211384472500549,13.897191359619242,3.99512737,-9.473387579166667,-2.652453238333334,0.0,0.166599999999999,1.0
mp-1201130,Eu4Nb8O24,36,4,14,492.584251707837,5.849129571034333,13.682895880773252,3.76817661,-9.920920414444446,-3.234421745000001,0.0,0.155199999999999,1.0
mp-1195922,Eu4P28,32,4,14,670.2207686582609,3.654760820538164,20.944399020570653,5.49393892,-13.1091842846875,-0.417257172291664,0.0,0.376,0.0
mp-20217,Eu4P4S12,20,4,14,468.058913402196,3.961132607857609,23.4029456701098,4.8848367,-15.6136774785,-1.288086223782738,0.0,0.8440000000000001,0.0
mp-20742,Eu4P4Se12,20,4,14,531.1167416469148,5.250249069475029,26.55583708234574,3.9052052,-19.1985621025,-1.107034158532738,0.0,0.493299999999999,0.0
mp-616175,Eu4S4O16,24,3,62,305.85798553296405,5.386262623005255,12.74408273054017,6.0173536,-8.31204552875,-2.608992945000002,0.0,1.0685,1.0
mp-755177,Eu2Se2O6,10,4,11,148.47427375094398,6.238942248256981,14.847427375094398,4.97208367,-7.976394935,-2.250813653468751,0.0,0.086599999999999,1.0
mp-560341,Eu4Si8N8O8,28,5,1,369.51968320621313,4.8199749180984,13.19713154307904,6.8443267,-9.179480362142856,-2.363591008571429,0.0,0.5023,1.0
mp-657233,Eu4Tl4P4S16,28,3,62,726.6464456394274,4.712842128866323,25.95165877283669,4.52152294,-6.133395965,-1.186467989710886,0.0,0.0566,0.0
mp-12728,Eu2Tm2Cu2S6,12,3,63,250.615473326108,6.369280990932468,20.884622777175665,5.31712343,-7.135748155000001,-1.921598360416668,0.0,0.234099999999999,0.0
mp-2030750,Eu2V2O8,12,3,74,169.60481661841925,5.226302334841995,14.133734718201604,0.23096918,-9.369385168333332,-2.842074834166668,0.0,0.1841,1.0
mp-1212698,Eu2Zr2F12,16,3,67,220.0312059991692,5.391132736238068,13.751950374948072,3.82554296,-14.10103317375,-4.097677883750002,0.0,0.5628000000000001,0.0
mp-1106293,Eu4Zr4O12,20,3,62,274.21787904044083,7.053166080151789,13.710893952022042,5.23632035,-10.376129998500002,-3.640190886500001,1.0,0.186599999999999,1.0
mp-1189927,Eu4Zr4S12,20,3,62,453.9792656740195,4.965501930606425,22.698963283700973,4.16187358,-8.331561390000001,-2.081383140500001,1.0,0.145299999999999,0.0
mp-23069,Fe2I6O18,26,2,173,385.17596368137714,5.005665172475196,14.814460141591429,2.03895376,-5.407422442307692,-0.978675665384616,0.0,2.0217,1.0
mp-649683,Fe4P8O24,36,4,15,432.6607689335354,3.282061936730978,12.018354692598203,2.01174075,-7.913726065277776,-2.470533366309521,1.0,2.3833,1.0
mp-541930,Fe6P18O54,78,4,9,995.895670799719,2.928866361985792,12.767893215381012,0.763107099999999,-7.805626616794872,-2.4788503990201463,0.0,2.793399999999999,1.0
mp-22265,Fe4Sb8O16,28,1,135,432.1332126609825,5.585109174329644,15.433329023606518,5.73472767,-6.9249625282142855,-1.707838569642855,1.0,0.5327000000000001,1.0
mp-505009,Fe4Sb8O24,36,1,136,412.2278093005656,6.370390694791666,11.450772480571269,4.98045354,-7.026841844166666,-1.8695318752777768,0.0,0.5366000000000001,1.0
mp-9198,Fe1Si4P4,9,5,1,142.79220689747766,3.396639507818292,15.865800766386409,7.44490812,-6.041138171111111,-0.281895123174603,0.0,1.023299999999999,0.0
mp-21925,Fe8Mo12O48,68,3,60,1191.1499693410258,3.298370592064647,17.516911313838616,-0.86768065,-8.30060802514706,-1.8975183304411785,0.0,2.6649000000000003,1.0
mp-540767,Fe4S6O24,34,6,148,436.1826633418016,3.044654290836532,12.828901862994163,0.20022323,-7.049341865,-1.8298916777941168,1.0,0.0045,1.0
mp-555589,Fe8Se24O60,92,4,14,1536.0030779880606,3.569464273388715,16.695685630305007,1.57890372,-6.190395655217391,-1.314964074307065,1.0,0.709399999999999,1.0
mp-505098,Fe8Se12O48,68,4,14,918.2547227373846,3.910137895832627,13.503745922608596,0.5515219,-6.37030016235294,-1.264223167472426,0.0,2.2467,1.0
mp-1224755,Fe8As4O16F4,32,4,9,413.9290067911999,4.326287362526622,12.935281462224998,3.65709002,-7.2985632478125,-1.884080579375,0.0,1.9063999999999992,1.0
mp-558202,Fe4Cu6Se12O36,58,4,14,815.79604611239,4.331822319802993,14.065449070903275,1.9644306,-6.05389923862069,-1.25126374255388,0.0,0.2582,1.0
mp-22421,Fe4Ge2O8,14,0,227,147.23598060888963,5.601316735348605,10.516855757777831,3.29921629,-7.739175189999999,-1.831330290714285,0.0,1.407699999999999,1.0
mp-1213486,Fe8H8Se12O40,68,4,14,941.6207062213848,3.6016108471625072,13.84736332678507,2.72205802,-6.308938823529412,-1.385543542325367,0.0,2.3287,1.0
mp-1199115,Fe8H24S12O60,104,4,14,1179.7744049082398,2.5556002379349803,11.34398466257923,-0.30585783,-6.407546715673077,-1.640410760673076,0.0,2.1469,1.0
mp-28104,Fe8Mo4P48,60,3,60,862.3962588139988,4.461871992849093,14.373270980233311,8.53722732,-6.554629390000007,-0.369871067714292,0.0,0.021099999999998,0.0
mp-35596,Fe4Ni2O8,14,3,74,142.76703202962187,5.452222427486228,10.197645144972991,3.57517255,-7.664187429285714,-1.591041269285713,0.0,1.361599999999999,1.0
mp-1102399,Fe4P4O14,22,5,1,257.3358492426871,3.686274528952315,11.697084056485778,3.27643279,-8.045931502727273,-2.372593638571427,0.0,0.7385,1.0
mp-1202233,Fe12P18O54F18,102,2,176,1321.2725484140046,3.058489933093757,12.953652435431415,-0.28027094,-7.44534345921569,-2.535951155329135,1.0,2.5033,1.0
mp-704946,Fe4P8Pb6O32,50,4,14,708.6813083996619,5.216650411051926,14.17362616799324,2.3655657,-7.508363700399999,-2.352073547942856,0.0,2.4141999999999992,1.0
mp-556581,Fe8P4Cl4O16,32,4,15,453.8067041494768,3.5437145640185053,14.181459504671151,1.87806265,-7.6158749978125,-2.116387919642856,1.0,0.5959999999999991,1.0
mp-18121,Fe8P4O16F4,32,4,15,382.7632000357645,3.91591308505489,11.96135000111764,2.78930138,-7.8733182171875,-2.365666674642858,0.0,0.2855,1.0
mp-2017427,Fe4P2O10,16,1,109,177.88164234605202,4.157111313157726,11.117602646628251,5.38802325,-10.4946209575,-2.035376527247024,0.0,0.318099999999999,1.0
mp-1224708,Fe4Pb2Se8O24,38,5,1,570.9252309704484,4.809055309450831,15.024348183432853,1.5813684,-6.384696512631579,-1.436703488388157,0.0,1.8645,1.0
mp-1225390,Fe4Te4Pb6O24,38,4,9,534.5526871602647,7.334123853208331,14.067175977901702,4.11989547,-6.5398353144736845,-1.606144394649122,1.0,1.754,1.0
mp-559713,Fe12P16O56,84,3,62,1111.5632684638565,3.079906673987702,13.232896053141149,1.81222135,-7.947555354404756,-2.407392887670061,0.0,1.8996,1.0
mp-19346,Fe6P4O16,26,4,14,297.4272228794915,3.99160319216485,11.439508572288135,2.7283269800000003,-8.128574840384614,-2.295905708021976,0.0,0.8948,1.0
mp-561343,Fe12Te16O48,76,4,14,1063.889725998378,5.431198597827585,13.998549026294448,4.323102439999999,-6.6881584675,-1.564010085219297,1.0,1.7774,1.0
mp-1203485,Fe12B44H4O80,140,3,31,1154.951370102959,3.49347237836356,8.249652643592563,5.89050369,-8.300029979714285,-2.550379704059522,0.0,0.3226,1.0
mp-22223,Fe12B4O20,36,3,55,355.03359641994285,4.8332174578230624,9.862044344998411,3.50816274,-8.280407674166668,-1.9660454046296287,0.0,1.019499999999999,1.0
mp-1199228,Fe6P4H4O20,34,4,14,373.24278051773007,3.483461516482133,10.977728838756766,1.80923793,-7.532193409411765,-2.090372608928571,1.0,1.7308,1.0
mp-1213069,Fe6Pb10F38,54,1,108,847.0968914446663,6.133704739975148,15.686979471197525,0.47300339,-5.646571466296296,-2.671145758703703,1.0,2.9969,0.0
mp-1194355,Fe6Sb4Br8O8,26,3,64,625.1193205957086,4.221844412176652,24.04305079214264,1.10770663,-6.039950604615385,-1.423973968461538,0.0,2.3936,1.0
mp-1199909,Fe6Sb10I6O18,40,5,2,849.2817958703064,5.08766997229215,21.23204489675766,5.7045865,-6.25782306575,-1.49988522975,0.0,2.5007,1.0
mp-735662,Fe8As20Pb2O44,74,5,2,1166.6479575627793,4.360501665403309,15.765512940037558,1.98555398,-6.879490435540541,-1.659244507297297,0.0,1.7469,1.0
mp-28519,Fe8As10O26,44,5,2,589.8748475888096,4.537781580200644,13.40624653610931,1.9507088,-7.180171403636362,-1.654980923295453,0.0,1.717499999999999,1.0
mp-510450,Fe7As6O24,37,5,2,451.2508613083494,4.505729198011462,12.195969224549984,1.92058274,-7.2680351016216225,-1.698793269594594,0.0,1.5249,1.0
mp-1203691,Fe7Sb10Br8O18,43,5,2,859.1695191287457,4.900882688391629,19.98068649136618,2.49442144,-6.281267634418605,-1.5664064427906972,0.0,2.4551,1.0
mp-1201515,Fe7Sb10Cl8O18,43,5,2,807.8131200133416,4.481467255986815,18.786351628217247,2.66457602,-6.40409316627907,-1.649865227674419,0.0,2.5717,1.0
mp-704626,Fe4Ag4Se8O24,40,3,33,590.784682317046,4.695384202912479,14.76961705792615,1.20753728,-6.04704936825,-1.247794580885416,0.0,1.179,1.0
mp-1225099,Fe1Ag2Sn3S8,14,6,166,300.12824798046347,4.892244543772462,21.437731998604534,5.56696288,-4.873848426428571,-0.638742092738093,0.0,0.8741000000000001,0.0
mp-19225,Fe1Ag1O2,4,6,166,44.86647144072492,7.243436164392254,11.21661786018123,2.87547709,-6.521329300625,-1.219109076041666,0.0,1.148499999999999,1.0
mp-1202376,Fe4Ag4P8O28,44,4,14,544.5594207515228,4.118498939348613,12.376350471625518,3.77445498,-7.354706272727273,-2.192921456904761,1.0,1.8448,1.0
mp-2008,Fe2As4,6,3,58,89.86017320542841,7.60188367003951,14.976695534238068,6.3776090100000005,-6.193539033333335,-0.256783608333336,0.0,0.282999999999999,0.0
mp-21016,Fe4As4O16,24,4,14,300.7565582959569,4.301333473258373,12.531523262331538,0.74787422,-7.188357069999999,-1.699692442916665,0.0,1.557999999999999,1.0
mp-561511,Fe4As4S4,12,4,14,170.39560714503736,6.347305252930267,14.199633928753114,6.92338233,-6.372841523333334,-0.61334042,0.0,0.7373000000000001,0.0
mp-1101894,Fe4As4Se4,12,4,14,188.05874552278053,7.407455827423989,15.67156212689838,6.21643243,-6.020275271666668,-0.474923531614584,0.0,0.448599999999999,0.0
mp-1101938,Fe4B8,12,3,62,86.7227772916286,5.933250012956842,7.226898107635717,8.29298741,-7.572315125833334,-0.296046875277777,0.0,0.5153999999999991,0.0
mp-19097,Fe2B2O6,10,6,167,90.18607292723622,4.222110400646406,9.018607292723622,2.14937788,-8.269021531000002,-2.270362331833334,0.0,1.481599999999999,1.0
mp-20028,Fe4B4Pb4O16,28,3,62,352.2111596136394,6.371394957580149,12.578969986201406,3.09749457,-7.607812850714284,-2.08582655488095,0.0,2.1228,1.0
mp-1197024,Fe4Bi4Se12O36,56,3,19,889.9663595870363,4.819103840289642,15.892256421197075,3.81459346,-6.2506830478571445,-1.437865976573661,0.0,2.6249,1.0
mp-583463,Fe6Cl18,24,6,149,578.1438476765462,2.79528438994453,24.08932698652276,-0.07238041,-4.668593320833335,-1.164680918333334,0.0,0.4268,0.0
mp-1225059,Fe2Cl8,10,3,65,246.91805244749287,2.658510927278204,24.69180524474929,0.20214343,-4.170437406,-0.997598924,0.0,0.2505,0.0
mp-540828,Fe2Cl2O2,6,3,59,103.12384033276442,3.455486604643026,17.187306722127403,0.82134767,-6.5817956933333335,-1.492954021666667,0.0,1.9133,1.0
mp-510281,Fe1Cu1O2,4,6,166,40.43653967417185,6.216869178480445,10.109134918542962,3.85972224,-6.937399098749999,-1.3211116262499991,0.0,0.8043999999999991,1.0
mp-556911,Fe2F4,6,1,136,72.16258851761452,4.318802548760486,12.027098086269088,0.97110852,-6.689816664999999,-2.590574678333332,0.0,1.6921,0.0
mp-1213622,Fe2F12,14,4,15,202.4799674244229,2.785641977932983,14.462854816030209,-4.8375269,-4.447496921428572,-1.5970489985714291,0.0,0.5263,0.0
mp-24537,Fe2H16Br4O8,30,4,14,385.1385128686893,2.480980324267545,12.837950428956308,-1.02703152,-5.134622821666666,-1.221483500999999,0.0,1.7042000000000002,1.0
mp-1199758,Fe4H32N12O52,100,4,14,974.5775749941068,2.139502483144078,9.745775749941068,-1.47513698,-6.106171227699999,-1.107384066899999,0.0,2.3425,1.0
mp-21522,Fe4Ni8B4O20,36,3,55,349.9269784591056,5.011884536230351,9.720193846086268,4.01018031,-7.551591123055555,-1.8349809712962952,1.0,1.6665,1.0
mp-1224908,Fe2Ni2Sb12,16,4,12,376.3126709213889,7.458260200939684,23.519541932586804,7.39404753,-5.152344536875002,-0.274323870625002,1.0,0.128499999999999,0.0
mp-1274279,Fe4O4,8,4,12,84.98847683834407,5.6148992124359385,10.623559604793009,4.16044822,-8.190510495,-1.481519387499999,0.0,1.8157,1.0
mp-20027,Fe2P4,6,3,58,75.14771676361988,5.205722709332147,12.524619460603311,8.53079943,-6.968965603333333,-0.53530951642857,0.0,0.4327,0.0
mp-558841,Fe4P8H4O28,44,4,14,521.5826674513935,2.939102364501344,11.854151532986217,1.30064103,-7.50928799090909,-2.297300560503246,0.0,2.6776,1.0
mp-735042,Fe4P12H8O40,64,4,14,777.723361998584,2.654187799039557,12.151927531227876,0.06182067,-7.3307377687500015,-2.269088724151786,0.0,2.9572000000000003,1.0
mp-570553,Fe4P16,20,4,15,288.1989015879236,4.142491451453412,14.40994507939618,7.92607,-6.396424983499999,-0.370041921214284,0.0,0.8049000000000001,0.0
mp-850225,Fe1P6W3O24,34,6,146,488.7134775793289,3.999839048276441,14.373925811156733,0.895019799999999,-8.321463604705883,-2.480630746701681,0.0,2.0933,1.0
mp-540760,Fe4P4Cl32,40,3,57,1180.491451379719,2.084334206812788,29.512286284492973,-0.37392125,-4.071397607000007,-1.204013893464293,0.0,1.4768,0.0
mp-753395,Fe2P2O8,12,5,2,155.57431203596445,3.219509155542256,12.964526002997038,0.42391547,-7.964475752916666,-2.351585960357142,0.0,1.3564,1.0
mp-1101971,Fe4P4S4,12,4,14,155.60722013775205,5.074600806071013,12.967268344812672,7.86513343,-6.70680205,-0.6988506157142851,0.0,0.5054000000000001,0.0
mp-1191971,Fe1Re2H8O12,23,5,2,301.6999994877545,3.4582105958724982,13.117391282076282,1.42081927,-6.875989257391304,-1.662810422826087,0.0,2.683799999999999,1.0
mp-1522,Fe2S4,6,3,58,80.66959748929806,4.9392380950398245,13.44493291488301,7.70109249,-6.429082515,-0.8468357333333321,0.0,0.8770000000000001,0.0
mp-649334,Fe4S4Cl28,36,4,14,1071.6518540092552,2.083048250993553,29.76810705581265,0.80942167,-3.771612140555556,-0.932925431944444,0.0,1.4278,0.0
mp-19254,Fe4S4O16,24,3,62,280.85085254301805,3.592632915718981,11.702118855959084,1.32000576,-7.257987350833333,-1.857949884583333,1.0,2.7173,1.0
mp-1213459,Fe4Sb4P16O56,80,3,33,1042.8297211065258,3.34704465365685,13.035371513831572,3.91097714,-7.5810419105,-2.40442337942857,0.0,2.6756,1.0
mp-774425,Fe1Sb3P6O24,34,6,146,475.9921170350302,3.457024594287743,13.999768148089125,1.1994299,-7.407464066764706,-2.345672001995797,1.0,1.9333,1.0
mp-1224890,Fe4Sb12Pb16O52,84,6,160,1205.111666521048,8.035532419852489,14.346567458583904,5.22173188,-6.557328607738095,-1.793942594642857,0.0,1.253,1.0
mp-1224896,Fe2Sb12Pd2,16,4,12,394.4589737512626,7.516983467446845,24.653685859453912,6.98410243,-5.136440825624998,-0.333452018124997,1.0,0.248899999999999,0.0
mp-674490,Fe1Sb1O4,6,3,65,66.65611286382992,6.018811158576186,11.109352143971654,4.58858104,-7.232879218333333,-1.8344014733333327,1.0,1.0037,1.0
mp-27904,Fe4Sb4S4,12,4,14,196.96372428336025,7.070646686049397,16.41364369028002,8.45012213,-6.172063497500002,-0.592936158333333,0.0,0.547,0.0
mp-1103256,Fe4Sb4Se4,12,4,14,215.39488635636457,7.911723677921757,17.94957386303038,7.8475378,-5.858213263333333,-0.493235287447916,0.0,0.621999999999999,0.0
mp-1102580,Fe4Sb4Te4,12,4,14,248.61302720672083,8.154115357764365,20.717752267226736,8.31038938,-5.586637008333334,-0.339194227222221,0.0,0.298099999999999,0.0
mp-760,Fe2Se4,6,3,58,98.51988481308273,7.205959167435247,16.41998080218045,5.97109343,-5.823665015,-0.669716959895831,0.0,0.3741,0.0
mp-607953,Fe2Se2Br14,18,4,7,638.9936416957815,3.607657067940014,35.49964676087675,-0.40226838,-3.333857193888889,-0.731128479149305,0.0,0.086399999999999,0.0
mp-28189,Fe2Se2Cl14,18,5,1,510.43579688379344,2.491779038432064,28.357544271321856,-0.86257553,-3.77475762944444,-1.007454041927079,0.0,1.3187,0.0
mp-1190442,Fe4Se4O12F4,24,4,14,320.91947785155713,4.176741755402125,13.371644910481548,0.74250342,-6.479261696249999,-1.691983683307289,0.0,1.4261,1.0
mp-871,Fe4Si4,8,0,198,85.31240907185911,6.534565165631615,10.664051133982388,9.48775017,-7.42364898625,-0.475979366249999,0.0,0.180200000000001,0.0
mp-1714,Fe8Si16,24,3,64,292.7460250559444,5.083093963068341,12.197751043997684,9.10604776,-6.835854183333333,-0.395635093333333,0.0,0.6966000000000001,0.0
mp-541929,Fe4Si4P12O44,64,6,167,779.2333439495426,3.007639343794214,12.175520999211605,0.79815114,-7.920670894375,-2.635087714933036,0.0,2.8712,1.0
mp-1178212,Fe4Sn4O12,20,5,2,235.9626720863631,6.264690592443936,11.798133604318156,5.17641663,-7.323507478000002,-1.858812262000002,0.0,0.8620000000000001,1.0
mp-19880,Fe2Te4,6,3,58,126.8395426867011,8.144185370431034,21.13992378111685,8.54005078,-5.380872741666669,-0.461995076111112,0.0,0.077399999999999,0.0
mp-1201424,Fe4Te12Br4O28,48,4,14,881.8147063438762,4.749497898408484,18.37113971549742,2.43928301,-5.991002645000001,-1.476618273333333,0.0,1.0909,1.0
mp-1201019,Fe4Te12Cl4O28,48,4,14,814.2940215898005,4.780738287587777,16.964458783120843,4.61230441,-6.040068155208334,-1.5080507614583332,0.0,2.2711,1.0
mp-561036,Fe2Te12O26,40,6,148,571.5815878208988,5.981370721643863,14.28953969552247,4.9376447500000005,-6.09142512525,-1.5087576434999992,0.0,2.3607,1.0
mp-1102288,Fe4Te4As4,12,4,14,214.6122847875997,7.996333168517754,17.88435706563331,8.00084957,-5.820328764166668,-0.392512218888889,0.0,0.6818999999999991,0.0
mp-540998,Fe2Te2Br14,18,5,1,634.911325238213,3.885278258827466,35.27285140212294,-0.69095787,-3.40936294611111,-0.8458126296296281,0.0,1.0553,0.0
mp-540997,Fe2Te2Cl14,18,5,1,541.7651380941389,2.645852157600759,30.09806322745216,-0.63716826,-3.8846331194444432,-1.156507930185184,0.0,1.2641,0.0
mp-558502,Fe4Te4O12F4,24,4,14,331.45448708391166,5.018704916916735,13.81060362849632,2.62986865,-6.573041989583333,-1.8445315740277768,0.0,1.4996,1.0
mp-19421,Fe2W2O8,12,4,13,132.54622556038296,7.609071009222092,11.04551879669858,2.94325974,-8.892696,-2.022696756666667,0.0,2.401,1.0
mp-569237,Ga12Bi48Cl48,108,2,173,3912.054729603826,5.335332121115246,36.22272897781321,1.77113893,-3.809458912407407,-0.922525083240742,1.0,1.422499999999999,0.0
mp-556712,Ga8Bi4S16,28,1,126,696.8594756177176,4.543563902982043,24.887838414918487,2.08458481,-16.920207322142858,-0.701947040178572,0.0,2.5289,0.0
mp-571085,Ga8Bi4Se16,28,1,126,777.5222865646157,5.674642782026927,27.768653091593418,1.74563435,-20.443879880714288,-0.639013228035716,0.0,1.8901,0.0
mp-765466,Ga8Co4O16,28,0,227,290.96498913207864,5.989544234396211,10.391606754717094,2.9322124,-6.7341874425000015,-2.022551330357143,0.0,1.7927,1.0
mp-1201552,Ga8Cu4Se16O48,76,4,14,1108.9358032677233,4.257603898909076,14.591260569312148,2.27841722,-5.859806714342105,-1.464302678256578,0.0,0.7535000000000001,1.0
mp-29300,Ga4Cu2Cl16,22,4,14,614.9245509060693,2.628110642978884,27.95111595027588,-1.22883859,-8.622187046363637,-1.081108948181818,1.0,0.5977,0.0
mp-690544,Ga8Fe4O16,28,3,74,291.8581581647271,5.90093287138487,10.423505648740257,3.53324469,-6.966845545357144,-2.064265934642857,0.0,0.5741,1.0
mp-1203326,Ga8Hg12Cl32,52,4,14,1718.6199066472052,3.960821937258483,33.05038282013856,1.00620226,-2.941969439038461,-1.267080934615386,0.0,2.489,0.0
mp-4809,Ga2Hg1S4,7,1,82,160.37532561024014,4.848774584080167,22.91076080146288,1.547595869999999,-4.100255565714288,-0.826069515357145,1.0,1.5707,0.0
mp-4730,Ga2Hg1Se4,7,1,82,183.04843408134423,5.949833585363296,26.14977629733489,1.26047776,-19.10043891,-0.600496146250001,1.0,0.9168,0.0
mp-16337,Ga2Hg1Te4,7,1,82,229.30007570248443,6.158664349833605,32.75715367178349,2.952211059999999,-25.215008567142856,-0.368972043928571,1.0,0.661099999999999,0.0
mp-636675,Ga8I12,20,4,14,790.5244090935928,4.370491340830161,39.52622045467964,1.34446583,-2.784268818499998,-0.6586228404999981,1.0,2.2709,0.0
mp-580999,Ga4Ni2Cl16,22,4,15,589.0050069959816,2.71640117505317,26.77295486345371,-0.07957947,-8.806219489545454,-1.161966740454545,1.0,0.4607,0.0
mp-35236,Ga8Ni4O16,28,3,74,283.01261117488946,6.152216715633703,10.107593256246052,3.72607549,-6.528667952142856,-2.010357559999998,1.0,1.2806,1.0
mp-886,Ga4O6,10,4,12,105.73376293730534,5.887587999533202,10.573376293730536,2.06965603,-6.449011680999999,-2.268996668999999,0.0,2.007799999999999,1.0
mp-1196984,Ga16Pb8S32,56,3,70,1349.925713949747,4.673442147600109,24.1058163205312,2.73338172,-4.712736013928571,-0.952410673214284,0.0,2.2715,0.0
mp-571171,Ga16Pb8Se32,56,3,70,1493.0427995692946,5.89445331047664,26.661478563737404,2.11775995,-20.2008518525,-0.712719433392854,0.0,2.0313,0.0
mp-30945,Ga2Pd1Br8,11,4,12,376.3799537922184,3.904936466358408,34.21635943565622,-2.18994691,-3.313250152727272,-1.101282322272727,0.0,1.5761999999999992,0.0