material_id,composition,nsites,crystal_system,space_group,volume,density,density_atomic,efermi,energy_per_atom,formation_energy_per_atom,is_gap_direct,band_gap,is_oxide
mp-1225991,Cs2Cr2O6F2,12,4,9,261.8734221374433,3.19457181972808,21.82278517812028,-1.87017367,-6.6614700225,-2.108343284109196,1.0,2.8472,1.0
mp-562965,Cs4Cr4P8O28,44,4,14,640.659944396972,3.720388268331982,14.560453281749364,1.25982388,-7.761660712954546,-2.668233519676444,0.0,2.7059,1.0
mp-1103473,Cs1Cr1P2S7,11,4,5,297.7554663709054,2.6283945004216163,27.068678760991403,2.23588424,-5.468648782727272,-0.8904225042218971,0.0,1.0727,0.0
mp-1196438,Cs8Cu16As8S24,56,3,61,1369.290719339347,4.182496618018807,24.45161998820263,3.28827448,-4.434527553035714,-0.692871532272167,0.0,1.3532,0.0
mp-23017,Cs2Cu4Br6,12,3,63,354.59257339612583,4.680228121429063,29.54938111634382,1.80495393,-3.399218940833333,-1.063013854942529,1.0,1.4959,0.0
mp-579536,Cs2Cu4I2Cl4,12,4,11,347.75085980052285,4.372141249341455,28.97923831671024,2.359634299999999,-3.527737752499999,-1.139822898275862,1.0,2.0373,0.0
mp-553303,Cs1Cu3O2,6,6,164,124.77345540897284,4.731709939199385,20.795575901495475,2.18316305,-4.819688318333333,-0.969435053275862,0.0,1.4572,1.0
mp-7786,Cs1Cu3S2,6,6,164,162.5991758120839,3.959103167334656,27.09986263534732,1.97499436,-12.898634413333331,-0.612161219270833,0.0,1.6845999999999992,0.0
mp-27336,Cs4Cu4Br12,20,3,20,627.3825242091172,4.617702427819936,31.369126210455857,0.57977478,-3.233106413499999,-1.249501644431033,0.0,0.373599999999999,0.0
mp-23032,Cs6Cu6Cl18,30,2,178,835.3747005276382,3.611518889694559,27.845823350921272,0.53333607,-12.214737264,-1.332224125499999,1.0,0.5494,0.0
mp-541037,Cs2Cu2O2,6,3,63,155.8709544382072,4.526602670573323,25.978492406367867,2.350117479999999,-4.503686341666667,-1.185304593218391,0.0,1.1227,1.0
mp-553310,Cs2Cu2O4,8,3,63,175.51025953569226,4.322830688737202,21.93878244196153,0.8818475,-5.073960275000001,-1.348183712413794,0.0,0.9672,1.0
mp-1198842,Cs8Cu8P8S24,48,4,14,1321.5748637653985,3.252991700470434,27.532809661779137,2.507216859999999,-4.697080543125,-0.8907911317580041,0.0,2.1498,0.0
mp-1201069,Cs8Cu8P8Se24,48,4,14,1474.115398876609,4.184187735069202,30.710737476596027,2.06141164,-4.233157412083334,-0.7480920456382131,1.0,1.3477,0.0
mp-18003,Cs4Cu4S16,24,3,19,643.171905702622,3.353355744998353,26.79882940427592,2.64510982,-11.879577679583331,-0.530370124791666,0.0,1.7757,0.0
mp-17095,Cs4Cu4Se16,24,3,19,724.6176236699068,4.695883409828323,30.19240098624612,1.978083499999999,-16.043269015833335,-0.5096873618750001,0.0,1.1049,0.0
mp-1190421,Cs2Dy4Ag6Te10,22,3,63,706.7549216105842,6.670351559037642,32.12522370957201,3.8255095,-4.191672467727272,-1.065302365120165,0.0,1.0728,0.0
mp-18672,Cs2Dy4Cu6Se10,22,3,63,530.2477796752135,6.534728208847734,24.102171803418795,3.7357763,-4.951068084545454,-1.321803900427931,0.0,1.1878,0.0
mp-11122,Cs2Dy2Cd2Se6,12,3,63,395.17615329839686,5.418057924512425,32.93134610819974,1.38115575,-4.409087741666666,-1.580071454725513,1.0,2.0718,0.0
mp-12487,Cs2Dy2Cd2Te6,12,3,63,469.9829181504342,5.586796687178349,39.16524317920285,2.60184906,-3.9361726225,-1.2834591277203051,1.0,1.5476,0.0
mp-754138,Cs2Dy2O4,8,2,194,147.44496147583573,7.374515146656906,18.430620184479466,2.29221196,-6.816404833749999,-2.960836056580458,0.0,2.835,1.0
mp-984555,Cs2Dy2S4,8,2,194,231.8375209334761,5.150354104061922,28.979690116684512,2.1796225,-20.410638925,-2.120575327656247,0.0,2.2244,0.0
mp-1193064,Cs4Dy4Si4S16,28,3,19,779.7694023566658,3.848061243421652,27.848907227023776,1.9228172,-5.650632832857143,-1.721331490188833,0.0,2.931899999999999,0.0
mp-1102146,Cs2Dy2Zn2Se6,12,3,63,372.7913921054386,5.32466686886006,31.06594934211988,1.43100173,-4.5238811675,-1.644909310558847,1.0,2.154099999999999,0.0
mp-510462,Cs2Dy2Zn2Te6,12,3,63,442.0824489520824,5.586292108158935,36.84020407934021,2.85763431,-4.007362930833334,-1.304693866053638,1.0,1.3714,0.0
mp-569903,Cs2Er2Nb12Br36,52,6,163,1589.7736557244118,4.796141476633741,30.57257030239253,2.10981441,-5.187908492115384,-1.512963713255968,1.0,0.650199999999999,0.0
mp-571010,Cs2Er2Ta12Br36,52,6,163,1583.288494460961,5.923832330163839,30.447855662710783,2.40010592,-5.575210017307692,-1.492813891679045,1.0,1.0084,0.0
mp-1196026,Cs1Er10C4I18,33,5,2,1175.7844622682744,5.84376630421121,35.629832189947706,3.60117355,-4.793922345454545,-1.432344929989549,0.0,0.2905,0.0
mp-1190252,Cs2Er4Ag6Te10,22,3,63,689.9447478771672,6.878686778175768,31.3611249035076,3.57379714,-4.164419742272726,-1.0472599520898611,1.0,1.1873,0.0
mp-17410,Cs4Er12Se20,36,3,62,1112.4042008186127,6.147031190644895,30.90011668940591,1.85119544,-24.177179554166667,-2.128006259201388,0.0,1.6727999999999992,0.0
mp-23118,Cs1Er6C1I12,20,6,148,769.1042961239642,5.7675370406109785,38.45521480619821,3.79371137,-4.2688575075,-1.477302142357758,0.0,0.219999999999999,0.0
mp-12488,Cs2Er2Cd2Te6,12,3,63,455.6242784758644,5.797548870366191,37.9686898729887,2.68242867,-3.917161095000002,-1.272890386609196,1.0,1.5492,0.0
mp-1213650,Cs2Er2Mn2Se6,12,3,63,376.6359207317878,5.219948543070007,31.38632672764898,2.64413352,-5.749293189166667,-1.561718838269576,0.0,0.514,0.0
mp-561751,Cs1Er1S2,4,6,166,113.95259114890584,5.308568791868081,28.488147787226463,2.2954972,-20.8842361575,-2.108264574739578,0.0,2.1441,0.0
mp-16972,Cs4Er4Si4S16,28,3,19,771.2682373261198,3.931460276646166,27.545294190218563,1.95175175,-5.636722388214286,-1.714657719593595,0.0,2.957,0.0
mp-568606,Cs2Er2Ta12Cl36,52,6,163,1339.671945823768,5.017557618220667,25.762922035072464,3.04782294,-6.138556597115384,-1.90967074956366,1.0,1.3436,0.0
mp-7155,Cs2Er2Zn2Se6,12,3,63,370.9770828409474,5.393311549203616,30.91475690341228,1.52134458,-4.5167038858333335,-1.64617481528107,1.0,2.1566,0.0
mp-569107,Cs2Er2Zn2Te6,12,3,63,441.7847952366879,5.625831249445617,36.81539960305732,2.92524164,-3.991148861666667,-1.296922583275861,1.0,1.386499999999999,0.0
mp-1190817,Cs4Eu4As4S12,24,4,14,693.8881221511967,4.3648687956048144,28.9120050896332,3.73501821,-6.103570003750003,-1.390021550359199,0.0,0.5358,0.0
mp-638685,Cs4Eu4Br12,20,3,62,808.6999868930995,4.308584189992555,40.434999344654976,2.20307245,-5.513263593,-2.291877774931035,1.0,0.9373999999999992,0.0
mp-1213620,Cs2Eu2Ta12Cl36,52,6,163,1367.208570301883,4.879347184141967,26.29247250580544,2.77130182,-6.352084673653845,-1.903183706679044,0.0,0.109199999999999,0.0
mp-1104989,Cs1Fe1Mo2O8,12,6,164,243.2378440526549,3.472291774926311,20.26982033772125,-1.25120543,-7.912516603333334,-2.024767683304598,1.0,2.3737,1.0
mp-560628,Cs4Fe4S8O32,48,6,147,776.8876661812026,3.256372456551146,16.185159712108387,-0.15610943,-6.768817577708333,-1.99895041476293,0.0,2.3514,1.0
mp-1213156,Cs1Fe1Se2O8,12,6,150,217.97867000616327,3.615954068032529,18.16488916718028,-0.73160797,-6.093102065,-1.430309583695223,0.0,2.2281,1.0
mp-19476,Cs2Fe4P10O32,48,4,7,710.1875557742603,3.065128538568775,14.795574078630423,0.903867499999999,-7.686850765833333,-2.51631894511956,1.0,0.510599999999999,1.0
mp-1213351,Cs4Fe4Br16,24,3,62,934.6718484152636,3.61265766144581,38.94466035063598,-0.16610502,-4.020520111250001,-1.366222624525862,0.0,1.0776,0.0
mp-27570,Cs4Fe4Cl16,24,3,62,796.2981469819492,2.757318310542176,33.17908945758122,-1.24629741,-4.475456927500001,-1.680095264109195,0.0,1.3293,0.0
mp-1226043,Cs2Fe2Co2F12,18,3,74,294.3019356309492,4.081345335684319,16.350107535052732,-0.10787717,-5.790425814444443,-2.679922508850574,0.0,1.828,0.0
mp-568620,Cs4Fe4I16,24,4,14,1106.8269490959074,4.17896156506694,46.11778954566281,0.8675514400000001,-3.518375780416666,-0.939367573692528,0.0,0.6642,0.0
mp-1225937,Cs2Fe2Ni2F12,18,3,74,276.5142842486148,4.341010655565451,15.361904680478595,-0.682387699999999,-5.637271124444424,-2.677132267739443,1.0,2.6205,0.0
mp-1080749,Cs2Fe2O4,8,0,227,159.0833671836937,4.60843598161213,19.885420897961712,1.85834879,-6.5497713625,-1.731291164913793,1.0,1.976,1.0
mp-20113,Cs4Fe4P8O28,44,4,14,649.6157309897892,3.708451968532037,14.763993886131573,1.08784229,-7.510900882272727,-2.525021530812807,0.0,2.4057,1.0
mp-573145,Cs4Ga12S20,36,4,14,967.0015173273428,3.450889794771527,26.86115325909286,1.84254453,-12.0997087625,-1.031733622395833,1.0,2.9231,0.0
mp-1225982,Cs1Ga5Hg4Se12,22,5,1,631.8490484634796,5.86426082720137,28.720411293794527,1.25232273,-3.491923927272728,-0.7992837652400101,1.0,0.8074999999999991,0.0
mp-1213239,Cs4Ga4Ag4F24,36,3,62,619.9809065206882,4.547735953895159,17.221691847796894,-1.08528591,-4.5380919452777775,-2.508966887369093,0.0,0.3707,0.0
mp-1213401,Cs16Ga16O32,64,3,61,1144.3867947477895,5.447217247274361,17.881043667934215,1.08328946,-5.555982067656249,-2.097983166945042,1.0,2.9834,1.0
mp-562726,Cs4Ga4S12,20,4,14,596.6264354825277,3.3267584966791,29.831321774126383,1.44218654,-13.117701489500002,-0.986456250187501,0.0,2.647199999999999,0.0
mp-510283,Cs4Ga4Se12,20,4,14,668.8176749754033,4.36484250813304,33.44088374877016,1.0530445,-16.834732557000002,-0.9375506284375,0.0,1.8736,0.0
mp-17688,Cs8Ga8Te16,32,4,15,1290.0335556958362,4.714556621100473,40.31354861549488,2.01413371,-22.744625145625,-0.8982057531250011,1.0,1.2835,0.0
mp-541789,Cs4Gd4C8O24,40,5,2,593.4357377365792,4.590951744511555,14.83589344341448,0.68514984,-8.849176702,-2.536257019465517,0.0,2.7456,1.0
mp-1190455,Cs2Gd4Ag6Te10,22,3,63,705.3976281959063,6.633751356369024,32.06352855435938,3.62304554,-28.601236256363634,-1.050671112272725,0.0,0.622599999999999,0.0
mp-1213349,Cs4Gd8Cl28,40,3,62,1226.8132856389668,3.765958147691187,30.67033214097417,-0.73173729,-18.005549360750003,-2.508595772500001,1.0,2.621299999999999,0.0
mp-1190996,Cs2Gd4Cu6Se10,22,3,63,539.5699532522585,6.357199437160353,24.52590696601175,3.48547441,-6.685134471363637,-1.336279976033993,1.0,0.893699999999999,0.0
mp-1104011,Cs2Gd2Cd2Te6,12,3,63,471.8113551362256,5.528191133087244,39.3176129280188,2.63856495,-5.533886486666667,-1.304881873275861,0.0,0.8502999999999991,0.0
mp-755651,Cs2Gd2O4,8,2,194,152.98514675659035,6.993485734956848,19.1231433445738,2.43068846,-9.13122956125,-2.911224106163794,0.0,2.4891,1.0
mp-9084,Cs1Gd1S2,4,6,166,119.50243832030652,4.922952551236916,29.875609580076627,2.22546921,-23.225557145,-2.081693028906247,0.0,1.8329,0.0
mp-630711,Cs4Gd4Si4S16,28,3,19,784.0720393424618,3.782470164480381,28.00257283365935,1.89642961,-7.010521252857143,-1.7301132370935952,0.0,1.749,0.0
mp-1104966,Cs2Gd2Te8,12,1,125,458.77135568145127,5.795277261305765,38.23094630678761,4.55615511,-29.47920487083333,-1.116812280833334,0.0,0.083899999999999,0.0
mp-1104469,Cs2Gd2Zn2Te6,12,3,63,448.1598217300752,5.471632923431102,37.3466518108396,2.70870271,-5.599649389166664,-1.320689205775859,0.0,0.8742999999999991,0.0
mp-1273,Cs32Ge32,64,0,218,2586.3164799242613,4.223040828808655,40.41119499881658,2.12834708,-2.970936935,-0.205434222327586,0.0,1.331099999999999,0.0
mp-553970,Cs4Ge4Bi4S16,28,4,14,854.2054260848482,4.220610566752284,30.50733664588744,1.85384669,-4.643251815357142,-0.9326121003078812,0.0,2.0049,0.0
mp-1068340,Cs1Ge1Br3,5,6,160,182.01469342992672,4.062130257958361,36.40293868598535,1.686807009999999,-3.535090980000001,-1.446721973931036,1.0,0.7856000000000001,0.0
mp-22988,Cs1Ge1Cl3,5,6,160,162.92527551742106,3.17893909205653,32.58505510348421,1.25409942,-3.92553261,-1.7102058449310351,0.0,2.153499999999999,0.0
mp-28377,Cs1Ge1I3,5,6,160,225.06811678964056,4.325382720624483,45.01362335792811,2.03893625,-3.090217248000002,-1.069608593931036,1.0,0.9905,0.0
mp-1203289,Cs16Ge16Sb16O80,128,1,98,2208.816746965701,4.899214091751323,17.25638083566954,1.87287644,-6.386483242265625,-2.086506780972522,0.0,1.6632999999999991,1.0
mp-1057286,Cs1H1,2,0,225,65.00013874224075,3.4210452945750163,32.500069371120375,0.14185536,-14.529380255,-0.247597554374998,1.0,2.3475,0.0
mp-1198227,Cs4H20N8,32,3,62,379.21949430056617,2.90681953863786,11.850609196892693,2.028895,-7.976958181875,-0.39676863828125,0.0,2.0856,0.0
mp-1213477,Cs4Hf24C4Cl60,92,3,51,2612.039314026032,4.444103114275744,28.391731674195995,2.04241715,-6.431639237173913,-2.187816661398051,0.0,1.2179,0.0
mp-619510,Cs2Hg4Br10,16,4,11,586.3510116491043,5.287918993472978,36.64693822806902,-1.11592332,-2.371380036249999,-1.157373246206897,1.0,1.9907,0.0
mp-1542042,Cs1Hg5Cl11,17,4,12,593.9738609571729,4.265700101040478,34.939638879833694,1.10021171,-2.516882255294117,-1.1762758695385411,0.0,2.8387,0.0
mp-29845,Cs9Hg9Cl27,45,6,145,1469.7441149643837,4.4725877396285565,32.660980332541854,-0.92326246,-2.905680173333336,-1.553024571764372,0.0,2.0,0.0
mp-561947,Cs1Hg1F3,5,0,221,97.04743386104975,6.681526473864588,19.409486772209952,-0.75456646,-3.638687946000002,-2.246846599431038,0.0,0.7228,0.0
mp-1213418,Cs2Ho2Nb12Br36,52,6,163,1584.4841095414367,4.807271713603186,30.470848260412247,2.22721201,-5.189509748846154,-1.513412637102122,1.0,0.9589,0.0
mp-1190472,Cs2Ho4Ag6Te10,22,3,63,714.1990284951058,6.623428721833469,32.46359220432299,3.60034928,-4.176104259090909,-1.053497077089862,1.0,1.1763,0.0
mp-672258,Cs2Ho4Cu6Se10,22,5,1,527.357603890216,6.60115197554742,23.970800176828,4.85364462,-4.944716856818181,-1.3192155933067191,0.0,1.291399999999999,0.0
mp-18505,Cs4Ho12Te20,36,3,62,1371.884852969919,6.128031325268898,38.10791258249775,3.10972483,-29.544887744444445,-1.673931489444448,1.0,0.843399999999999,0.0
mp-12490,Cs2Ho2Cd2Te6,12,3,63,458.1045144064656,5.7492781885686775,38.1753762005388,2.65138487,-3.925997449999997,-1.27673329910919,1.0,1.546799999999999,0.0
mp-1213649,Cs2Ho2Mn2Se6,12,3,63,378.67155519375615,5.171464216430261,31.555962932813014,2.608223579999999,-5.754420969166667,-1.561853175769575,0.0,0.5124000000000001,0.0
mp-754154,Cs2Ho2O4,8,2,194,145.82792685979186,7.511636542455038,18.228490857473982,2.34369422,-6.82052683125,-2.970132069913791,0.0,2.8143,1.0
mp-1078726,Cs2Ho2S4,8,2,194,229.56216945373188,5.236562334658693,28.695271181716485,2.30194592,-20.6318219325,-2.116873162656251,0.0,2.2237,0.0
mp-1193331,Cs4Ho4Si4S16,28,3,19,763.2989369252491,3.9522431321393823,27.260676318758897,2.01244785,-5.641314595714285,-1.714969833522166,0.0,2.9111,0.0
mp-505712,Cs2Ho2Zn2Se6,12,3,63,362.3268295765071,5.5007277807118165,30.193902464708923,1.49777864,-4.520849744166668,-1.645327231114404,1.0,2.1295,0.0
mp-579556,Cs2Ho2Zn2Te6,12,3,63,452.0501204013798,5.480969623778268,37.67084336678165,2.769937859999999,-3.9989465625,-1.2997268416091932,1.0,1.3765,0.0
mp-22876,Cs4I12,16,3,62,805.5087520688634,4.235257200307448,50.34429700430396,0.62356098,-2.4835233243749992,-1.113519470538793,0.0,1.6766,0.0
mp-571011,Cs4I16,20,4,14,982.2274545172628,4.331436718846286,49.111372725863134,0.71583244,-2.376575653500003,-0.975770047431038,0.0,1.7836,0.0
mp-22990,Cs1I1Cl2,4,6,166,145.57159169159775,3.772485427136273,36.39289792289944,0.56840432,-2.946586252499999,-1.414317306163793,0.0,2.2301,0.0
mp-23489,Cs4I4O16,24,3,62,503.5822928384735,4.27096065783515,20.9825955349364,-0.86734012,-4.871871787916665,-1.167899420359194,0.0,2.5553,1.0
mp-559213,Cs4In12O20,36,3,62,566.7497897823531,6.532068853572471,15.743049716176476,3.82065468,-5.688943607500001,-1.919465404683909,0.0,1.47,1.0
mp-22007,Cs1In5S8,14,4,12,342.2249336522706,4.675156284136773,24.444638118019327,3.79683205,-15.322388539285711,-0.8737172851785691,0.0,1.272499999999999,0.0
mp-1112338,Cs2In2Br6,10,0,225,382.1688493634601,4.235853401834922,38.216884936346005,0.8096348600000001,-3.261870632,-1.546272448264368,0.0,1.3782,0.0
mp-1194853,Cs8In8Hg8S24,48,4,15,1510.4114360574497,4.789039780228177,31.46690491786353,1.57090059,-3.6623365875,-0.9303529118869732,1.0,1.379,0.0
mp-607987,Cs4In4I16,24,4,14,1189.730379872715,4.217001806314527,49.57209916136313,1.03596152,-2.785796061250001,-1.158595765636974,0.0,2.4128,0.0
mp-559459,Cs8In8S16,32,4,15,1036.7503841080547,3.995907581009716,32.39844950337671,1.55199071,-17.117215313125,-1.177954927031249,1.0,2.4776,0.0
mp-1200720,Cs8In8Se16,32,4,15,1164.0839462948793,4.629128688764159,36.37762332171498,1.16516356,-20.231303315625,-1.153762355156246,1.0,1.630199999999999,0.0
mp-1199743,Cs8In8Te16,32,4,15,1426.5845461641318,4.683208109241317,44.58076706762912,1.95905686,-25.5614820721875,-0.931109072187499,1.0,1.3522,0.0
mp-557807,Cs4K8Au4O8,24,3,62,603.6011975771952,4.842595722311495,25.1500498990498,1.37102432,-3.977452331666666,-1.254032160692528,0.0,2.1843,1.0
mp-863759,Cs1K2Bi1,4,0,225,170.8421047372295,4.083087852646046,42.710526184307376,1.74313485,-24.422884145,-0.5110704906250021,1.0,0.300999999999999,0.0
mp-551244,Cs4K8Co4O8,24,1,139,541.7758259868706,3.7029288518524712,22.57399274945294,1.68249862,-4.596480021666665,-1.229804064025859,0.0,1.675799999999999,1.0
mp-8959,Cs2K4Pd2F10,18,1,127,330.7841258696071,4.141648112461453,18.37689588164484,-1.20821372,-4.515015265,-2.523919631572797,0.0,1.866099999999999,0.0
mp-581024,Cs1K2Sb1,4,0,225,160.3521637304515,3.446978376280063,40.08804093261288,1.820242599999999,-16.2693871475,-0.556562996875001,1.0,0.8633999999999991,0.0
mp-14429,Cs8K32Ga8O32,80,3,61,1684.3498737401512,3.336313931708577,21.05437342175189,0.59141323,-4.529837391125,-1.704497740740517,0.0,2.2621,1.0
mp-562074,Cs8K32Tl8O32,80,3,61,1759.0290022730385,4.211635766674823,21.98786252841298,0.75736954,-4.147272794125,-1.387595534323851,0.0,1.5380999999999991,1.0
mp-654335,Cs4K20Ru8O36,68,3,62,1320.1269037663762,3.393873696198824,19.413630937740827,1.6638513,-5.749431401176471,-1.652650206523833,1.0,0.2671,1.0
mp-1213403,Cs2La2Nb12Br36,52,6,163,1634.3115332350544,4.607821047001314,31.42906794682797,2.23973261,-5.226400147884615,-1.537290434602121,1.0,0.9812,0.0
mp-1213395,Cs2La2Ta12Br36,52,6,163,1633.6039020664164,5.683734760450361,31.415459655123392,2.51803499,-5.6140347594230775,-1.517473699371352,1.0,1.3172,0.0
mp-505815,Cs2La4Cu2Se8,16,3,63,490.9593193778793,5.344621587086087,30.684957461117456,3.84969122,-5.426969509375,-1.819113964253771,0.0,1.075399999999999,0.0
mp-1213677,Cs4La24Fe4I40,72,3,62,3196.7943157393506,4.760611014721097,44.39992105193542,4.93261951,-4.507362518472223,-1.494353209564177,1.0,0.119599999999999,0.0
mp-12491,Cs2La2Cd2Te6,12,3,63,492.8746482942158,5.16833182904251,41.07288735785132,2.73702907,-4.071785804166661,-1.366133713275856,1.0,1.730099999999999,0.0
mp-11124,Cs2La2Hg2Se6,12,3,63,412.1266697206757,5.715663491553581,34.34388914338964,1.85707442,-4.303747007499997,-1.530181816531069,1.0,1.4545,0.0
mp-1178449,Cs2La2O4,8,2,194,168.8840569283063,5.974369886696811,21.11050711603829,3.85066342,-6.849405664999999,-2.914428993663793,0.0,2.9322,1.0
mp-561586,Cs1La1S2,4,6,166,131.64959753221544,4.237331790916125,32.91239938305386,2.83419254,-19.889689835,-2.158881992656248,0.0,2.5035,0.0
mp-510460,Cs2La2Zn2Te6,12,3,63,483.867069581675,4.941940810639995,40.32225579847292,2.90571559,-4.12203623,-1.366428569109195,1.0,1.587399999999999,0.0
mp-642740,Cs3Li3H12N6,24,2,180,311.66902266368425,2.7474601197899613,12.98620927765351,0.55871336,-4.645670042916667,-0.5114048326652301,0.0,1.996999999999999,0.0
mp-1225894,Cs1Li1Mn1S2,5,1,119,122.50984672107538,3.50941290450225,24.50196934421508,3.5505405,-5.299377454,-1.248250481183908,0.0,0.809299999999999,0.0
mp-1225887,Cs1Li1Zn1S2,5,1,119,119.2130347431588,3.752316748058588,23.84260694863176,3.95145796,-3.79783172,-1.3271590835977,1.0,2.5019,0.0
mp-1213352,Cs2Lu2Nb12Br36,52,6,163,1524.6330968382788,5.017848723601268,29.319867246889977,2.13354313,-5.180992764807692,-1.507818422743148,1.0,0.9749999999999992,0.0
mp-570921,Cs2Lu2Nb12Cl36,52,6,163,1341.443654496538,3.722201695474475,25.79699335570265,2.58667013,-5.731593736730769,-1.911929672743148,1.0,0.946299999999999,0.0
mp-1213389,Cs2Lu2Ta12Br36,52,6,163,1509.08387682735,6.232081984393861,29.020843785141345,2.43945349,-5.568155941538464,-1.487530252704688,1.0,1.3127,0.0
mp-581696,Cs2Lu4Cu6Se10,22,3,63,505.2085150496382,7.02251205197347,22.964023411347192,3.80863894,-4.910867004545454,-1.299182470427932,0.0,1.2562,0.0
mp-1202825,Cs4Lu28S44,76,3,64,1939.6403816035768,5.857103267013715,25.521583968468125,3.92666041,-6.436756435394737,-2.327190909806412,0.0,2.031799999999999,0.0