material_id,composition,nsites,crystal_system,space_group,volume,density,density_atomic,efermi,energy_per_atom,formation_energy_per_atom,is_gap_direct,band_gap,is_oxide
mp-1198176,Nb4Al8Se8Cl32,52,4,14,1594.293694775876,2.451451790082188,30.65949413030531,0.28685546,-4.776839148846154,-1.748175913822116,0.0,1.9186,0.0
mp-1105368,Nb2Al2Br16,20,3,63,690.7587739473224,3.649749604673546,34.53793869736612,-1.31661452,-4.1020786975,-1.407833382499999,0.0,1.5329000000000002,0.0
mp-865280,Nb1Al1Fe2,4,0,225,51.074002221711446,7.529156989262648,12.76850055542786,6.75348945,-8.0724849275,-0.375754104999999,1.0,0.3207,0.0
mp-570225,Nb2As2P2Cl26,32,3,36,1052.8868465094718,2.080835661679978,32.90271395342099,-1.23259401,-4.154719333125,-1.3910969895089291,1.0,2.4397,0.0
mp-8615,Nb2B2O8,12,1,141,108.63133602292216,5.127383801765492,9.052611335243514,3.26847026,-9.050229218333332,-2.954805746527777,0.0,2.458899999999999,1.0
mp-550070,Nb2Br4O2,8,4,5,192.61378741680204,4.633206536333692,24.07672342710025,1.15727205,-6.556403996249999,-1.975614217499999,0.0,0.9038,1.0
mp-1220556,Nb4Br12O4,20,4,14,561.5928537936711,4.123225137861524,28.07964268968356,1.1034117,-5.811502866,-1.819481736,0.0,1.9457,1.0
mp-1080428,Nb2Br8,10,4,12,310.2093177994072,4.416434249597641,31.02093177994072,0.18029491,-4.656139540000007,-1.326321304000006,0.0,0.8728,0.0
mp-28601,Nb8Br40,48,3,62,1599.9079524719216,4.08870142885932,33.33141567649837,-1.24223812,-4.365852622291666,-1.318179669791667,1.0,1.565,0.0
mp-1025567,Nb2Cl4O2,8,4,5,172.50529083906667,3.461742928261133,21.56316135488333,1.1729129,-6.92200413625,-2.235416225,0.0,0.9093,1.0
mp-556422,Nb4Cl12O4,20,1,113,494.8461782771093,2.889427806415289,24.742308913855464,-1.441437799999999,-6.248637615,-2.129658726,0.0,2.8075,1.0
mp-31040,Nb2Cl8,10,4,12,264.77104459749734,2.944121327402491,26.47710445974973,0.10127967,-11.281181436,-1.412415387999999,0.0,1.0797,0.0
mp-707060,Nb4Cl16F4,24,5,2,664.1786515631456,2.537309077093259,27.674110481797737,-1.9923365999999991,-10.50042269625,-1.755446331249999,0.0,2.5076,0.0
mp-23307,Nb6Cl30,36,4,12,1035.3694155376024,2.599826445139612,28.760261542711177,-1.84891587,-10.620253230555557,-1.370875040972222,0.0,2.2227,0.0
mp-1094088,Nb1Co1Sn1,3,0,216,52.46585053017647,8.562867735864295,17.488616843392155,6.57654431,-7.394681213333333,-0.313250008333332,0.0,0.970399999999999,0.0
mp-1220452,Nb1Cu3Se2S2,8,3,35,177.19027738207214,4.738178822493062,22.148784672759017,2.88166934,-5.5104838725,-0.802050479960937,0.0,1.4624,0.0
mp-5621,Nb1Cu3S4,8,0,215,164.67953723815498,4.152411843361413,20.58494215476937,3.03951651,-5.71631260375,-0.8472671887499991,0.0,1.6574,0.0
mp-4043,Nb1Cu3Se4,8,0,215,181.8284476776296,5.473847418333714,22.72855595970369,2.72415191,-14.91109472625,-0.596006779531249,0.0,1.3604,0.0
mp-991676,Nb1Cu3Te4,8,0,215,212.9776307986598,6.190207181635206,26.62220384983248,4.55881623,-4.87404854,-0.502529962083333,0.0,0.9169,0.0
mp-31761,Nb2Fe2O8,12,4,12,155.77976990612953,4.535608094455163,12.98164749217746,1.00472623,-8.88775719,-2.493895478333334,0.0,1.8298,1.0
mp-9437,Nb1Fe1Sb1,3,0,216,52.43169450533423,8.567236262108185,17.477231501778075,7.27691586,-7.968846716666668,-0.402070886666668,0.0,0.513799999999999,0.0
mp-977410,Nb1Ga1Fe2,4,0,225,51.00945410295019,8.930071007937828,12.752363525737548,5.99525996,-7.775199172499999,-0.257838301874999,0.0,0.0905,0.0
mp-549720,Nb2I4O2,8,4,5,228.5338164569104,5.271009533107264,28.5667270571138,2.898376899999999,-6.146197130000001,-1.621874311250001,0.0,0.842599999999999,1.0
mp-546285,Nb2I6O2,10,4,5,336.66607214499976,4.829900367280732,33.666607214499976,1.862461699999999,-5.329622354999995,-1.405361576999995,0.0,0.8196000000000001,1.0
mp-570044,Nb4I16,20,3,36,776.7787442897354,5.135022045861266,38.83893721448677,2.4138527,-4.006396015500004,-0.7669249155000041,0.0,0.4775,0.0
mp-569578,Nb2I10,12,5,2,499.9954616659167,4.831739153421856,41.66628847215972,0.98107186,-3.700696750000001,-0.747135397500001,0.0,0.94,0.0
mp-557685,Nb4I4O8,16,3,62,322.93955114583247,5.179170648974487,20.18372194661453,2.67976717,-7.736413205625,-2.356103289375,0.0,1.0412,1.0
mp-7596,Nb4N4O4,12,4,14,132.11468427885,6.179509141675791,11.0095570232375,4.02409913,-9.771813071666664,-1.975965141666666,0.0,1.5556,1.0
mp-21600,Nb4Ni8B4O24,40,3,62,404.9871910923904,5.200736346364042,10.12467977730976,3.39364543,-8.099561877,-2.2966882569166662,0.0,2.7318,1.0
mp-557057,Nb8O16,24,1,88,288.6331088235784,5.748749527899252,12.026379534315767,4.28043332,-9.563370544166666,-2.897628194166666,0.0,0.2824,1.0
mp-752467,Nb2O4F2,8,4,9,117.31099616863546,4.073915140637288,14.663874521079432,-0.84700796,-8.6453698325,-3.16759997625,0.0,2.2079,1.0
mp-9339,Nb2P2,4,1,109,64.41246005193307,6.387205680425864,16.103115012983267,7.0762785,-8.7470525525,-0.988663269821428,1.0,0.1162,0.0
mp-570531,Nb2P4N2Cl24,32,4,15,976.7148203789228,2.02075919705376,30.52233813684133,-0.81988337,-4.5705044946875,-1.3546892799553572,0.0,2.4276,0.0
mp-679987,Nb8P16S16Cl40,80,4,14,2424.0791511631146,2.171502642143412,30.30098938953893,-0.12756518,-5.0646384615,-1.219469938928571,0.0,1.705,0.0
mp-570486,Nb8P16Se16Cl40,80,4,14,2649.876186444693,2.456654385313352,33.12345233055866,-0.1381163,-4.8961328235,-1.179453918897321,0.0,1.3286,0.0
mp-27787,Nb2P2Cl20,24,5,2,673.3288614101131,2.359675267698904,28.055369225421376,-0.79304167,-4.288884387916666,-1.455367174136904,0.0,2.2683,0.0
mp-560255,Nb4P4Cl32O4,44,3,62,1230.2054249090368,2.286591042748727,27.95921420247811,-1.16316751,-4.898355996363637,-1.693530362694805,1.0,2.3872,1.0
mp-556918,Nb4P4O20,28,3,33,413.3640306381525,3.276007915397064,14.763001094219732,-0.25246718,-8.680678128928571,-2.9297376160204083,0.0,2.2614,1.0
mp-2762805,Nb4S4I4,12,6,160,317.6914407829312,5.266112147401022,26.474286731910933,4.29690665,-20.113007896666662,-1.003755395104167,0.0,0.5914,0.0
mp-1969,Nb2Sb4,6,4,12,137.98981957965026,8.096961771913243,22.998303263275044,7.91779994,-25.697218913333334,-0.314983543333336,0.0,0.0047,0.0
mp-3491,Nb4Sb4O16,24,3,33,329.2661959854274,5.621377850336273,13.71942483272614,3.20948477,-8.193491296249993,-2.523132912916659,0.0,2.4311,1.0
mp-505297,Nb1Sb1Ru1,3,0,216,58.88361462561361,8.903879238228733,19.627871541871205,7.15066285,-25.80394155333333,-0.515632994999999,0.0,0.377299999999999,0.0
mp-23498,Nb4Se4Br12,20,4,13,614.9830639574155,4.445273497842308,30.749153197870776,0.70076965,-4.9629368295,-1.26132560496875,0.0,0.736399999999999,0.0
mp-570270,Nb4Se4Cl12,20,4,13,537.9559870590768,3.435255849351811,26.897799352953843,1.31775281,-12.7464392275,-1.245848912812499,0.0,0.7559,0.0
mp-2012385,Nb4Se4I4,12,6,160,328.7691022516065,6.036098465318776,27.397425187633875,4.09162702,-22.093678820833333,-0.8922392696874981,0.0,0.612699999999999,0.0
mp-2355707,Nb4Se4I4,12,3,44,329.567253378228,6.021480147688283,27.463937781519,4.47131679,-6.062184877499999,-1.021775166614582,1.0,0.1055,0.0
mp-541817,Nb4Se4I12,20,4,15,728.4732351623243,5.038374970655778,36.42366175811621,2.50420857,-4.486534377999999,-0.852683505468748,0.0,0.627,0.0
mp-2713956,Nb6Sn6P18O72,102,6,161,1515.0565301629824,3.265257316021362,14.853495393754727,0.48202426,-7.977370945784314,-2.698969208662466,0.0,2.9196,1.0
mp-1220683,Nb2Sn12O2F30,46,4,9,792.3519068923016,4.6363028917251015,17.22504145418047,3.61845818,-5.686246292391303,-2.737790518478259,1.0,2.739899999999999,1.0
mp-505088,Nb8Te32I8,48,4,14,1700.5225350327562,5.704334371584607,35.42755281318242,3.6602627,-4.716250022500001,-0.683159817777778,1.0,0.5477000000000001,0.0
mp-28038,Nb4Te4Br12,20,4,13,643.0609971097618,4.753580780623357,32.15304985548809,1.58796368,-4.806260205000001,-1.175170097333334,0.0,0.5947,0.0
mp-540924,Nb4Te4I12,20,4,13,766.6170222348449,5.209114433685061,38.33085111174224,2.94140862,-4.333631542999998,-0.7703017873333311,0.0,0.457799999999999,0.0
mp-753993,Nb4V4O20,28,3,62,472.49657534362575,3.146716293789564,16.87487769084378,-0.56995811,-8.990486568571429,-2.715484263571429,0.0,2.0888,1.0
mp-1029422,Nb2Zn4N6,12,3,36,152.47287666534035,5.788296258643522,12.70607305544503,2.2817674500000003,-6.851710200833335,-0.579105951666668,0.0,1.850099999999999,0.0
mp-1096784,Ni4As8O16,28,1,135,380.5623668646239,4.7566835345604535,13.591513102307996,2.43365297,-6.524285150357142,-1.536824326785712,0.0,2.7724,1.0
mp-27806,Ni1N2F14,17,1,87,204.0701939135492,2.869827717322747,12.004129053738188,-1.63915087,-3.87113614,-0.974040527058823,1.0,1.9538,0.0
mp-19135,Ni4P8O24,36,4,15,411.3828797372334,3.497809534664725,11.42730221492315,2.93079906,-7.524747774722223,-2.380431134642857,0.0,1.486299999999999,1.0
mp-21275,Ni4Sb8O16,28,1,135,417.2088814840183,5.830246661630062,14.900317195857795,4.47971377,-6.455979677499999,-1.623124937499998,0.0,2.0339,1.0
mp-705872,Ni34As12O64,110,4,14,1128.2273434340952,5.767439023975597,10.25661221303723,3.97181274,-6.623520858181806,-1.448651568818169,0.0,2.484999999999999,1.0
mp-22638,Ni4Ge2O8,14,0,227,138.90137272237544,6.073625217696281,9.921526623026818,4.01941694,-6.801564132142856,-1.662257669999998,1.0,2.1356,1.0
mp-554705,Ni4P4O14,22,4,14,225.9069260569849,4.28287047788338,10.26849663895386,3.63279128,-7.412793299318182,-2.228525349707793,0.0,1.558699999999999,1.0
mp-504969,Ni6As4O16,26,3,64,271.37372051097816,5.555066768713786,10.437450788883776,3.47919321,-6.636443227307693,-1.5391860623076932,0.0,2.1524,1.0
mp-504714,Ni6B14I2O26,48,0,219,449.2524132325048,4.336812184035671,9.359425275677184,3.41592718,-7.776406664583333,-2.36208757642361,0.0,2.4228,1.0
mp-24540,Ni6H4Se6O20,36,5,2,456.9774236563996,4.178588396454393,12.693817323788878,1.68056128,-5.962424494444445,-1.290308527751735,0.0,2.9775,1.0
mp-560757,Ni6Mo4Se2O22,34,5,2,417.5582029411021,4.954386529258759,12.281123615914767,2.56121129,-7.311894088823529,-1.608647453961397,1.0,2.364399999999999,1.0
mp-1198070,Ni12Te8Mo4O40,64,3,19,931.3985537141924,4.90078504705274,14.553102401784257,2.44461198,-6.79775304625,-1.5507354220833331,1.0,2.9872,1.0
mp-555343,Ni10Se8Br4O24,46,5,2,702.0660234399064,4.546458583180777,15.26230485738927,1.90352717,-5.807475818695653,-1.219051712581522,0.0,2.8709,1.0
mp-556514,Ni20Sn4B8O40,72,3,62,719.5563695965322,5.481246588235971,9.993838466618504,4.62769802,-7.179001394027779,-1.859632013657408,1.0,2.9308,1.0
mp-555442,Ni7Te6Cl2O18,33,6,148,502.219694204649,5.076477535200653,15.218778612262092,3.351952009999999,-5.997828303939394,-1.3893078248484851,0.0,2.7053000000000003,1.0
mp-24231,Ni1H12Cl2O6,21,4,12,193.40995596350004,2.040718752848649,9.209997903023812,-0.01687203,-5.05394809,-1.248853538809524,0.0,1.412599999999999,1.0
mp-23968,Ni4H8Se4O20,36,4,15,368.49799085587216,3.959472763555573,10.236055301552003,0.82330766,-5.786541920555555,-1.25252124720486,1.0,2.9949,1.0
mp-19009,Ni1O1,2,0,225,18.34183362776642,6.762154477618838,9.17091681388321,5.87177732,-6.5821341425,-1.218085299999999,0.0,2.300899999999999,1.0
mp-20580,Ni1Rh1F6,8,6,148,92.94852075559167,4.923443935946308,11.61856509444896,-0.45472809,-8.7638365175,-1.904572331249999,0.0,0.015899999999999,0.0
mp-1180046,Ni2S4,6,4,14,103.50869887667356,3.940790604191446,17.251449812778926,5.56203067,-5.276503906666667,-0.5908853016666661,0.0,0.2404,0.0
mp-1219954,Ni2Sb12Ru2,16,4,12,392.86217138690176,7.526389127204368,24.55388571168136,7.11019058,-24.1657700975,-0.210251743125002,0.0,0.068299999999999,0.0
mp-18817,Ni2Se2O8,12,3,63,138.78490608114268,4.825443526591887,11.565408840095223,2.10391879,-6.033719376666672,-1.18907068039063,0.0,2.1705,1.0
mp-1220014,Ni4Te4O16,24,4,14,261.63023423061657,6.354280647121693,10.901259759609024,5.39624354,-6.197424746666666,-1.411543647777777,0.0,0.2761,1.0
mp-1095223,O4F8,12,3,62,163.29880947970207,2.19628815325912,13.608234123308506,-2.17179391,-3.4212776375,-0.496055719166667,0.0,2.1241,1.0
mp-779221,P8H36C12Br12,68,4,14,1008.9302991481584,2.282867898101019,14.837210281590568,-0.01763132,-4.706305220147059,-0.354288685913865,1.0,2.5072,0.0
mp-28266,P4Pd2,6,4,15,100.96585044697864,5.538126998604,16.82764174116311,6.11811231,-5.765189985,-0.42824703142857,1.0,0.341899999999999,0.0
mp-3006,P2Pd3S8,13,6,164,315.60304137067794,3.355390565467712,24.277157028513688,1.13816163,-5.209562543076923,-0.6343726184065921,0.0,1.5779,0.0
mp-29274,P4Pd2O12,18,3,53,243.41967031074813,3.606829497725188,13.523315017263783,0.74726062,-7.245141252777785,-2.167519598253974,0.0,1.8521,1.0
mp-15953,P8Rh4,12,4,14,181.00969000940165,6.04928689916941,15.084140834116804,7.70783885,-14.773517265833334,-0.7267235144841251,0.0,0.370499999999999,0.0
mp-559115,P16Rh8Cl8F48,80,4,14,1512.9810311194865,2.759593209391988,18.912262888993578,1.03516399,-5.534708691375,-2.382017494303571,0.0,1.440899999999999,0.0
mp-1413,P4Ru2,6,3,58,87.36287712925868,6.197070793396386,14.560479521543114,8.18280746,-15.150502893333334,-0.6742735869841281,0.0,0.479199999999999,0.0
mp-541788,P8S20,28,5,2,768.3664039148517,1.921438561880109,27.44165728267328,0.36003138,-8.526280050357142,-0.214973188216411,0.0,2.5540000000000003,0.0
mp-1199938,P8S28,36,4,14,952.5813284124192,1.997026671381243,26.46059245590053,1.00074297,-8.423256228888889,-0.173351095626652,1.0,2.1425,0.0
mp-2013315,P3Br1Cl14,18,1,87,480.60905572914805,2.312021397116392,26.70050309606378,2.87371107,-7.662830574444445,-0.640649837579365,0.0,2.0731,0.0
mp-569386,P24N8Cl96,128,4,14,3450.5404080230423,2.049559992048624,26.95734693768002,0.7681307900000001,-3.9941211460937502,-1.071170401026785,0.0,1.971099999999999,0.0
mp-14935,P18Rh6O54,78,4,9,973.4213471851976,3.478165064394053,12.479760861348687,2.664379229999999,-7.521029773461539,-2.279308427994506,1.0,1.691799999999999,1.0
mp-28400,P12Ru4,16,5,2,244.2156441593808,5.276158455643308,15.2634777599613,7.74114088,-13.6995175325,-0.591826474732142,0.0,1.144599999999999,0.0
mp-28393,P12Se16I4,32,4,14,1009.1860053989672,3.525589573058633,31.537062668717727,1.0233714,-4.309094210625,-0.339834322912945,0.0,1.6621,0.0
mp-570583,P16N12Cl44,72,4,13,2437.627798225027,1.514735912474812,33.855941642014265,-0.7187719100000001,-4.746178958611111,-1.02336239547619,1.0,2.4896000000000003,0.0
mp-27173,P12Ru3,15,5,2,233.4672928999384,4.800200227408077,15.564486193329223,7.72588415,-12.801271645333332,-0.514703536714284,0.0,1.258600000000001,0.0
mp-1468,P32S24,56,3,62,1505.202911217807,1.942425809305307,26.87862341460369,-0.16336303,-8.741601223214285,-0.153986581120322,1.0,2.8765,0.0
mp-541352,P16S12I8,36,5,2,1137.3162348659512,2.767665699554373,31.59211763516531,0.60598472,-4.520385293055556,-0.395385511507935,0.0,2.2588,0.0
mp-2650,P16S28,44,4,14,1137.9158459348423,2.033362539496993,25.861723771246417,0.36606083,-8.607139174545454,-0.22047564514475,1.0,2.7617000000000003,0.0
mp-542630,P16S36,52,4,14,1421.2464868262073,1.927714130506903,27.331663208196293,0.18292232,-8.550564723076924,-0.218003416324405,0.0,2.7085,0.0
mp-1201169,P16Se12Br8,36,4,15,1103.363661625414,3.133866081252831,30.648990600705947,-0.03270126,-4.383541980277777,-0.447595135344741,0.0,2.014,0.0
mp-28089,P16Se12I8,36,1,122,1191.5663799937938,3.425879544490474,33.099066110938715,0.68441522,-4.233368446111111,-0.322518027844742,0.0,2.0743,0.0
mp-22874,P4Br20,24,3,57,848.3977810485536,3.370361053255473,35.34990754368973,-0.9011425,-3.048089240833333,-0.7813882074404751,0.0,1.6183,0.0
mp-647343,P4Br28,32,3,62,1116.6876060858342,3.511166888722397,34.89648769018232,-0.44943105,-2.829829503124999,-0.720567094330356,1.0,1.2227,0.0
mp-569410,P3Cl15,18,4,12,472.63025157637736,2.194878120865734,26.257236198687632,0.53427451,-7.278189656666667,-0.650811190079366,0.0,1.7516,0.0
mp-29443,P2I4,6,5,2,242.2460123090321,3.904236009133053,40.37433538483868,1.06198959,-3.134573235,-0.313406983214285,0.0,1.926699999999999,0.0
mp-27529,P2I6,8,2,173,350.1042029708565,3.905252359286758,43.76302537135706,0.05339502,-2.838635983749999,-0.341758141160712,0.0,2.2746,0.0
mp-27824,P2I2Cl12,16,1,113,518.1727837290273,2.375229037473215,32.385798983064205,0.12593311,-3.231292379375,-0.9774495118303572,0.0,1.7907000000000002,0.0
mp-573373,P4I4Cl32,40,3,74,1261.8154551918135,2.32405365209495,31.545386379795342,0.10642219,-3.1355839955,-0.962801141464286,0.0,1.6941000000000002,0.0
mp-7280,P8Pd8S8,24,3,60,448.8316178972408,5.015562776918197,18.70131741238504,3.57935735,-5.505654158333332,-0.59441585738095,0.0,1.014299999999999,0.0
mp-3123,P8Pd8Se8,24,3,60,487.5873488066263,5.894556122281345,20.31613953360943,3.43201418,-5.237269350416667,-0.5401804127455351,0.0,0.9677,0.0
mp-28870,P6Rh6O24,36,3,74,438.77671851321855,4.49315899221738,12.188242180922735,2.51508913,-7.396871356666667,-1.968267120773808,0.0,0.9836,1.0
mp-1219924,P4Rh4S4,12,0,198,181.59018753094583,6.069863877025767,15.13251562757882,7.00447898,-14.562578188333331,-0.8381435135962311,0.0,1.3994,0.0
mp-1102531,P4Rh4Se4,12,0,198,197.73201905899265,7.149634361481312,16.47766825491605,6.53609355,-16.546099375833332,-0.729477651512896,0.0,1.0834,0.0
mp-28885,P16Se16,32,4,14,921.5979334272434,3.169265900767657,28.79993541960136,0.88181487,-11.74729367375,-0.090475402269344,0.0,2.2667,0.0
mp-662547,P4Se4Cl36,44,3,46,1212.585041667096,2.349984886217702,27.55875094697945,-0.07891175,-7.686417813409091,-0.533182666094426,0.0,2.2607,0.0
mp-1189263,Pd2N4O12,18,4,14,240.42000377652064,3.183076940340627,13.356666876473367,0.01869334,-6.483000991666667,-0.755867288333332,1.0,1.3005,1.0
mp-28174,Pd1S2Cl6,9,5,2,241.37982016273432,2.636639162911701,26.81998001808159,-0.19676046,-3.427959907777781,-0.700420158333336,0.0,1.7553,0.0
mp-2422143,Pd1Se6Br2,9,5,2,297.99530653609105,4.123484349799246,33.11058961512123,0.46004423,-3.84610064,-0.576184668229166,0.0,1.094,0.0
mp-567437,Pd4Se32Cl8,44,3,61,1269.011540394932,4.234432943598672,28.84117137261209,1.35658354,-13.816769098863636,-0.202422439545451,0.0,1.3609,0.0
mp-28175,Pd2Se4Cl12,18,4,15,509.8341252887354,3.107573254675447,28.32411807159641,-0.73707595,-10.24138128111111,-0.408247119236109,0.0,1.7002000000000002,0.0
mp-1209912,Pd24Se16S8,48,1,135,919.4077911492946,7.357964334095175,19.15432898227697,3.71162148,-18.008174979791665,-0.418261584114581,0.0,0.3222,0.0
mp-27857,Pd8Br16,24,4,15,705.7037895605228,5.01153034644285,29.40432456502178,-1.06074334,-3.51269627,-0.694771309999999,0.0,0.9792,0.0
mp-29487,Pd6Cl12,18,6,148,444.3883477094757,3.975667931550937,24.68824153941532,-0.7029499100000001,-12.341778116666667,-0.5866676483333321,0.0,1.5592,0.0
mp-1524446,Pd2F6,8,6,148,101.98757516599755,5.321380357867303,12.748446895749696,0.91935012,-9.53671028375,-1.452075918750001,0.0,1.0487,0.0
mp-13868,Pd2F8,10,3,43,123.87576309118404,4.890463199182551,12.387576309118405,-2.03416089,-8.413561939000001,-1.320648856999999,0.0,0.6178,0.0
mp-27747,Pd4I8,12,4,14,409.9953276053117,5.835912631333681,34.166277300442644,1.96854934,-3.245639969999999,-0.503004289999998,0.0,0.9294,0.0
mp-13682,Pd4S8,12,3,61,240.46269291447263,4.711000020437429,20.03855774287272,3.08151392,-13.347824451666668,-0.337673860208333,0.0,0.420999999999999,0.0
mp-560901,Pd16S16Cl16,48,4,14,1158.8512712448469,3.987822787385049,24.14273481760097,1.27965788,-4.496795588541668,-0.7745341960416671,0.0,0.9647,0.0
mp-2677258,Pd2S2O8,12,4,15,182.0445459879988,3.693933985024819,15.17037883233323,0.62978288,-6.268090337499998,-1.416409437916666,1.0,0.962,1.0
mp-2418,Pd4Se8,12,3,61,276.089714769685,6.359482057942142,23.00747623080708,2.65838362,-17.520652720833333,-0.32612803020833,0.0,0.4001,0.0
mp-545482,Pd2Se2O6,10,4,11,154.68489951937246,5.0106199066219,15.468489951937247,1.48595699,-5.736829246,-1.032893985468749,0.0,1.0589,1.0
mp-1192510,Rb4Ge12As12,28,3,62,778.9329958020971,4.503689175592126,27.81903556436061,3.14283564,-4.320511934642857,-0.197656901071429,0.0,0.7805000000000001,0.0
mp-1210315,Rb4Nb24Cl60,88,3,51,2360.696381771937,3.305189180580799,26.82609524740837,1.87004985,-5.8112673421590895,-1.751426146136362,1.0,0.966499999999999,0.0
mp-9798,Rb2Sb4Se8,14,5,2,439.12168405760434,4.876833880010663,31.36583457554317,2.75805091,-4.084507180714285,-0.767052543124999,0.0,1.1191,0.0