material_id,composition,nsites,crystal_system,space_group,volume,density,density_atomic,efermi,energy_per_atom,formation_energy_per_atom,is_gap_direct,band_gap,is_oxide
mp-1220796,Na10Sr2Nb2As8,22,4,9,604.4887130498623,3.269834854623242,27.47675968408465,2.63827653,-3.975568268636364,-0.595311254717868,0.0,1.1672999999999991,0.0
mp-1220783,Na10Sr2Nb2P8,22,4,9,549.5050199778015,2.534574566907846,24.977500908081883,3.10585782,-4.24152451090909,-0.590230772315269,0.0,1.3189,0.0
mp-1220774,Na10Sr2Ta2P8,22,4,9,548.0909999282602,3.074588250324529,24.91322726946637,1.75753238,-11.453124168636364,-0.7652421794761891,0.0,1.3769,0.0
mp-8957,Na10Ta2O10,22,4,15,304.01428235658955,4.106295353880255,13.818831016208616,0.8520465700000001,-6.256743916363635,-2.318986056293624,1.0,2.5380000000000003,1.0
mp-7652,Na40Tl8O32,80,3,61,1227.5478019385828,4.148329007029042,15.344347524232283,0.97617448,-4.367893411249999,-1.480701408272988,1.0,1.322,1.0
mp-31483,Na20Tl4Sn12,36,4,14,1083.6782840982464,4.140089539729121,30.102174558284624,3.07621407,-16.391843502500002,-0.254203639166667,0.0,0.0514,0.0
mp-1220895,Na12B36Se34,82,4,9,1698.5960109613998,3.274663102165147,20.714585499529264,1.21619753,-5.215206463414637,-0.6369169105638951,1.0,2.1085,0.0
mp-2763369,Na6Cd7S10,23,4,8,543.5695975196122,3.804746108650864,23.63346076172227,1.65361124,-11.524513128260873,-0.982339733831522,0.0,1.0715,0.0
mp-1173830,Na24Ga4As12,40,5,1,983.674228794419,2.9199136691687,24.59185571986048,1.93770214,-2.9081594295,-0.399280600327586,1.0,0.347699999999999,0.0
mp-1173850,Na24Ga4P12,40,5,1,897.8149881191167,2.22375281142179,22.44537470297792,2.81439322,-3.08407202025,-0.351587893220442,1.0,0.875899999999999,0.0
mp-27752,Na12Ge4S14,30,4,15,686.471434505351,2.45607269157867,22.882381150178368,0.97590183,-4.232363957666668,-1.148037467385058,0.0,2.4264,0.0
mp-18100,Na12Ge4Se14,30,4,15,790.558880384586,3.511714972933793,26.3519626794862,0.64705072,-3.840595634333332,-1.056078252645473,1.0,1.5871,0.0
mp-27125,Na6Mn1Cl8,15,0,225,344.2064916898619,2.298759556902208,22.94709944599079,0.77525522,-7.639654632,-1.95379268029885,0.0,2.5584,0.0
mp-5055,Na12Mn2S8,22,2,186,479.4265875932513,2.224574041475686,21.79211761787506,1.909590199999999,-7.48083355,-1.280068602339341,1.0,1.400299999999999,0.0
mp-14780,Na12Mn2Se8,22,2,186,541.9475169620226,3.117437989659179,24.633978043728305,1.33397003,-9.731278663181818,-1.248127843248431,1.0,1.133299999999999,0.0
mp-553959,Na6Nb8P5O35,54,6,155,724.4088866971854,3.658545073352692,13.41497938328121,3.25330617,-8.224592854074073,-2.8705786356757432,0.0,0.038199999999999,1.0
mp-560831,Na6P4Pb3S16,29,6,160,695.9268485240042,3.332101756006162,23.997477535310487,2.71783251,-4.654342842413794,-0.962483771270595,0.0,2.3264,0.0
mp-9007,Na12P8W2,22,2,186,511.426326461299,2.89409633882581,23.24665120278632,2.00764901,-10.43189803090909,-0.544517753809524,0.0,1.2626,0.0
mp-557401,Na12Pb2O10,24,3,63,327.2477824018704,4.314494009757718,13.6353242667446,1.59264703,-4.602387789583333,-1.560489725689655,1.0,1.0116,1.0
mp-16180,Na6S2O9,17,0,225,218.92562849752352,2.624870797876284,12.877978146913147,1.735700399999999,-5.6677224611764725,-2.087799352251522,0.0,2.9814,1.0
mp-16961,Na12Si4Se14,30,4,15,770.0069881144412,3.221112982279038,25.66689960381471,1.01075453,-4.02857967,-1.137090264978807,0.0,2.1551,0.0
mp-700033,Na24U20V8O92,144,4,14,2197.702339097554,5.433984557387327,15.26182179928857,1.86912622,-8.521080539652779,-3.063350262521551,1.0,1.8105,1.0
mp-1196529,Na12W12Se4O50,78,4,5,1090.162202338259,5.48013224765327,13.97643849151614,3.53025033,-7.636484808205128,-2.085460343281112,0.0,2.7351,1.0
mp-1029656,Na12W2N8,22,1,137,329.8494726470197,3.8039209053460974,14.993157847591805,2.32706802,-5.345465255909091,-0.403504721206896,1.0,1.2474,0.0
mp-7664,Na12Zn2O8,22,2,186,283.6496830435417,3.13017924181566,12.893167411070078,1.11002328,-4.186835490454545,-1.541207099388714,1.0,1.533599999999999,1.0
mp-8389,Na12Zn2S8,22,2,186,467.85737026673735,2.353911408106195,21.266244103033515,0.98343387,-6.918089973636364,-1.242118850568181,1.0,2.1581,0.0
mp-1024047,Na12Zn2Se8,22,2,186,532.4359322236804,3.23844153466847,24.20163328289457,0.6185740200000001,-3.293270883636363,-1.175660502513715,1.0,1.6667,0.0
mp-763805,Na7W9O27,43,5,1,558.4202925163829,6.68316573419196,12.986518430613556,2.85661099,-8.219695095581395,-2.182249405922213,0.0,1.0388,1.0
mp-28267,Na14Al4Sb10,28,4,11,756.142234020511,3.617763405355436,27.00507978644682,3.43193907,-12.439542395714286,-0.5148967314285721,0.0,0.308799999999999,0.0
mp-556168,Na14Al6O16,36,5,2,455.4124632658227,2.6972498400709632,12.650346201828407,1.45124136,-5.814454737499998,-2.46931801636973,0.0,2.7979000000000003,1.0
mp-1173826,Na21As33O93,147,5,1,1852.152653652068,3.983478960056349,12.599677916000465,3.41503016,-6.189925601496598,-1.819513673683438,1.0,2.1627,1.0
mp-541689,Na14In6Se16,36,5,2,948.3521108776914,3.9819313728104513,26.343114191046983,1.48684284,-12.6289698,-1.119107745694445,1.0,1.430499999999999,0.0
mp-764233,Na16Co2O12,30,2,185,424.2961787654456,2.652250731456852,14.143205958848188,0.83701769,-4.665558957666667,-1.495229025735632,0.0,0.9516999999999992,1.0
mp-27557,Na32Fe8O28,68,4,14,894.0558438030324,3.028187979118102,13.147880055926947,1.28820368,-5.325141853235294,-1.6598750482961462,0.0,2.109099999999999,1.0
mp-27618,Na32Ga8O28,68,4,14,888.3964661130715,3.254998143843118,13.064653913427522,0.6802631,-4.891087734411763,-1.866047422119673,0.0,2.4378,1.0
mp-554071,Na16Nb4Cu8S42,70,3,18,1615.9996504268329,2.666069856317152,23.085709291811902,3.42170782,-4.775239480428571,-0.939846511672412,0.0,1.2382,0.0
mp-3138,Na16Sn2Sb8,26,0,227,807.17941598685,3.249029382550054,31.045362153340385,2.20095223,-2.83928133,-0.43471648046419,0.0,0.2672,0.0
mp-9071,Na16Ti2As8,26,0,227,645.4275388160197,2.734712188516354,24.82413610830845,1.53753281,-8.403844876923078,-0.6898967597435891,1.0,1.0363,0.0
mp-761065,Na18Fe6P16O58,98,6,165,1321.1870084687953,2.730428712063259,13.48150008641628,0.83903128,-7.108501411122449,-2.530946146113401,1.0,2.4659,1.0
mp-1220845,Na9Sm1Ge4Se12,26,4,5,687.4910897830586,3.853340924985803,26.4419649916561,2.71261412,-4.125472823846154,-1.154814274059184,0.0,1.710799999999999,0.0
mp-1220844,Na9Sm1Si4Se12,26,4,5,660.9283193290162,3.560446014541836,25.420319974192928,1.51316892,-4.319845712307693,-1.225757904828415,1.0,2.399899999999999,0.0
mp-865081,Na1Ac1Te2,4,0,225,129.42295708817483,6.4817507404389865,32.35573927204371,5.52837893,-32.27260396,-1.513576809374996,1.0,0.603399999999999,0.0
mp-27303,Na2Ag6O4,12,3,72,189.61787116772987,6.630901866641533,15.801489263977489,1.30112012,-4.000185851666665,-0.7057765477298831,1.0,0.6596000000000001,1.0
mp-16992,Na4Ag12S8,24,0,227,475.81948380964513,5.73346728329379,19.82581182540188,2.326256,-14.403468987083334,-0.453167292187496,1.0,0.9312,0.0
mp-7386,Na2Ag2F8,12,1,140,155.4217440461332,4.420039617235297,12.951812003844433,-2.36872036,-8.110474405833333,-1.873112819999999,1.0,1.546399999999998,0.0
mp-6983,Na4Ag4O4,12,1,139,203.02887841412408,4.804486944170164,16.919073201177007,0.50018036,-4.081103235833333,-1.036896748515324,0.0,1.2098,1.0
mp-754326,Na1Ag1O2,4,4,12,51.30268643900297,5.271264458465234,12.825671609750742,0.79867351,-4.5233465725,-1.003201455761493,0.0,0.5911000000000001,1.0
mp-1210534,Na4Ag4Te20O56,84,4,14,1126.927332177789,5.851896391084504,13.415801573545108,4.85259125,-5.669721867261885,-1.4234055818513751,1.0,0.877899999999999,1.0
mp-1189227,Na2Al2P4S12,20,3,43,484.6229103132762,2.085401630399595,24.23114551566381,1.91297429,-5.0213897355,-0.9465496290665012,0.0,2.6538,0.0
mp-568785,Na4Al12Ni4Cl48,68,4,14,2050.337601985761,1.9050577579658272,30.15202355861414,-0.77565008,-4.223956305,-1.839185802139959,0.0,1.4245,0.0
mp-34763,Na2Al2B28,32,3,74,249.4444449200404,2.680424805107811,7.795138903751263,5.94362232,-7.2488131675,-0.1772358134375,0.0,1.584799999999999,0.0
mp-17060,Na8Al8Se16,32,4,15,793.4023364238976,3.480823007376366,24.7938230132468,1.65744354,-10.9590192278125,-1.229169387343748,0.0,2.7291,0.0
mp-10163,Na2Al2Te4,8,1,140,233.947090661952,4.332166536513134,29.243386332743995,3.79437726,-16.10640907,-0.823727190000003,1.0,1.2875,0.0
mp-1106381,Na8As8,16,4,14,372.1273917629648,3.495268713941957,23.2579619851853,2.36050273,-9.655195674375,-0.519339895624998,0.0,0.5734,0.0
mp-730154,Na2As6H4O18,30,5,2,366.9846828255105,3.563430726082945,12.232822760850349,0.20291617,-6.085215585333334,-1.640277565425288,0.0,2.6467,1.0
mp-17868,Na6As6O18,30,5,2,419.5407583073476,3.4650536594977,13.984691943578252,-0.37660809,-6.056050933666667,-1.8849056684425287,0.0,2.8628,1.0
mp-5942,Na4As4S8,16,4,14,377.2032996439169,2.853379324611498,23.575206227744808,1.67418309,-9.292502895625,-0.7070754651562491,1.0,1.3457,0.0
mp-984519,Na8As8Se16,32,4,7,844.2655477837195,4.025444214952513,26.383298368241235,1.43941405,-12.374051120625,-0.650343115781248,1.0,1.4318,0.0
mp-1202202,Na2Au2I8O24,36,4,14,536.6028551664175,5.691274071723872,14.90563486573382,3.87649248,-4.7888925405555565,-0.8951600239655181,1.0,1.9991,1.0
mp-1198003,Na2Au2S8O28,40,4,14,637.9581657988772,2.97879606115782,15.94895414497193,-1.27852534,-6.166753259999999,-1.644728504068964,1.0,1.789499999999999,1.0
mp-561190,Na2Au2S4O16,24,4,14,351.7052940643956,3.89119813939039,14.65438725268315,-0.17091909,-6.01998026,-1.646979430531608,0.0,1.753,1.0
mp-570193,Na16Au16Cl64,96,4,14,2752.949485489003,3.491414350692001,28.67655714051045,-0.16641584,-3.225940159583333,-1.224311163146551,1.0,1.6058,0.0
mp-7388,Na2Au2F8,12,1,140,162.19727488899,6.059737512397105,13.5164395740825,-1.51921399,-12.991942973333332,-1.883067553333333,1.0,2.1333,0.0
mp-997089,Na1Au1O2,4,4,12,53.03675090795896,7.888517735006287,13.259187726989738,1.67059515,-4.7355475275,-1.107666330344827,0.0,1.158999999999999,1.0
mp-1204074,Na16Au16S16,48,3,68,1149.951736294541,5.822731714696094,23.957327839469603,3.67662609,-3.750197462499999,-0.8322100137931021,0.0,2.304699999999999,0.0
mp-29139,Na4Au4Se8,16,4,14,387.43254247554376,6.478324386984666,24.214533904721485,1.75295947,-21.310771280625,-0.6177059851562521,0.0,0.9131,0.0
mp-640950,Na6B54Se48,108,6,147,2325.28907315954,3.221982675614343,21.53045438110685,1.23528883,-5.484309286759259,-0.5163349235719971,0.0,1.9515,0.0
mp-9573,Na2Be2As2,6,2,194,111.66173289766868,3.180153655733842,18.61028881627811,2.3730639,-3.630102558333333,-0.37968383295977,0.0,1.287399999999999,0.0
mp-1210092,Na1Bi1Mo2O8,12,1,82,165.39630329848387,5.540394652944721,13.783025274873657,1.88300933,-7.540159535833333,-1.997930923448276,0.0,2.8545,1.0
mp-557498,Na4Bi8Au4O20,36,1,127,571.720500232584,8.340610298867656,15.881125006460666,3.81687904,-5.537725175,-1.411561127931034,0.0,0.8399000000000001,1.0
mp-1220821,Na1Bi3Br2O4,10,3,38,196.08704675226977,7.399130800513741,19.60870467522697,2.7456546,-5.298020810999998,-1.690264731137929,0.0,2.2208,1.0
mp-1220820,Na1Bi3Cl2O4,10,3,38,184.8686651996438,7.04959091742355,18.48686651996438,2.9659943,-5.418036455000009,-1.7679611221379412,0.0,2.3702,1.0
mp-1220823,Na1Bi3I2O4,10,3,38,220.071604534147,7.302014013917357,22.007160453414706,3.74747531,-5.137671399,-1.5525021031379311,0.0,1.8933,1.0
mp-27420,Na1Bi1F6,8,6,148,122.811616592228,4.677742127460289,15.3514520740285,-3.53068528,-12.39309941875,-2.290271666875,0.0,2.7315,0.0
mp-22984,Na2Bi2O4,8,4,15,122.27626577796308,7.169515409564825,15.284533222245386,3.61751707,-5.49738232625,-1.715463051594827,1.0,1.135,1.0
mp-23054,Na2Bi2O6,10,6,148,143.40569727537377,6.483681240488199,14.340569727537376,1.22898212,-5.595388328000004,-1.580260707275866,0.0,1.096399999999999,1.0
mp-1221125,Na1Bi1S2,4,6,166,95.23997070706923,5.162600272406609,23.809992676767312,3.27721128,-20.40511663,-0.8710035101562491,0.0,1.446899999999999,0.0
mp-1221101,Na1Bi1Se2,4,6,166,107.46877154353464,6.024334776269959,26.86719288588366,2.65828024,-23.5332472675,-0.8608535732812501,0.0,1.092299999999999,0.0
mp-1221102,Na1Bi1Te2,4,6,166,131.93214699478915,6.131675384646976,32.98303674869729,3.57417448,-28.87543008,-0.650204346250003,0.0,1.065299999999999,0.0
mp-1221124,Na4Bi4Te4O20,32,4,14,445.1759653898539,6.55847137969368,13.911748918432934,3.82001729,-5.869841082500001,-1.730482831630748,0.0,2.3709,1.0
mp-1210052,Na2Br2F8,12,1,140,166.86663573206815,3.560322111876248,13.905552977672343,2.03970215,-3.665364227499999,-1.893018091896551,1.0,2.9542,0.0
mp-1120755,Na2C2O6,10,6,167,123.79553348782788,2.226615596414948,12.379553348782787,-1.46431483,-6.870565965999999,-1.7877121087758612,0.0,0.6623,1.0
mp-1189407,Na2Ca4I2O12,20,4,14,264.3892132267418,4.095576937125335,13.21946066133709,5.37396264,-5.879858976,-2.223389057637931,0.0,2.6721999999999992,1.0
mp-6281,Na2Ca6Ru2O12,22,6,167,282.5916039102002,3.99916425152482,12.8450729050091,3.49155639,-6.780300290454545,-2.569328564216301,0.0,0.439,1.0
mp-961685,Na1Ca1As1,3,0,216,82.89801505073483,2.764079915842361,27.63267168357828,1.22372693,-9.48279434,-1.0461259208333331,0.0,1.5818999999999992,0.0
mp-6684,Na4Cd4P4O16,28,3,62,373.3799083414905,4.098152206909577,13.334996726481805,0.98466128,-6.318627815714286,-2.38876374228888,1.0,2.9173,1.0
mp-1210295,Na2Ce2C4O12,20,3,26,241.41828572006784,3.894798159653997,12.070914286003392,5.08501983,-8.0430322955,-2.50065552913793,0.0,0.283999999999999,1.0
mp-1204327,Na4Ce4Ga16S32,56,3,70,1343.9748859777883,3.452195592955135,23.999551535317654,3.49714447,-5.024505855535715,-1.274653621348522,0.0,0.231599999999999,0.0
mp-569618,Na4Ce4P8Se24,40,4,14,1052.264788113791,4.411082787749266,26.30661970284477,4.11218183,-4.9332771715,-1.024768514972751,0.0,0.141399999999999,0.0
mp-21404,Na4Co4F12,20,3,62,230.6016740543089,4.001342240631689,11.530083702715444,0.40272957,-5.440153471000003,-2.596814546275864,0.0,2.9522,0.0
mp-18921,Na1Co1O2,4,6,166,37.00440947813951,5.112135088513984,9.251102369534877,3.19186026,-6.150268552500005,-1.557503675344833,0.0,2.245199999999999,1.0
mp-21213,Na2Cr2Ge4O12,20,4,15,239.67302851175376,4.3823525466509,11.98365142558769,2.29586215,-7.200982999999999,-2.208124001137931,0.0,2.8468,1.0
mp-1210128,Na2Cr2P4S12,20,3,43,482.49024827905856,2.266799638074472,24.124512413952928,2.06682499,-5.527427009,-0.8618397385665011,0.0,1.6163999999999992,0.0
mp-1210195,Na1Cr1S2O8,12,4,12,157.0557890027371,2.824145282877851,13.08798241689476,3.32392053,-6.9874233175,-2.082825365531609,0.0,2.7232000000000003,1.0
mp-19280,Na2Cr6O16,24,4,12,339.8051362009592,3.000196593496474,14.158547341706631,-0.41750598,-7.727487842916666,-1.903775240531608,0.0,1.791,1.0
mp-646192,Na4Cr4F24,32,3,62,409.9002080005814,3.062233231964267,12.80938150001817,-3.01307243,-5.3734581053125,-2.563722792984914,0.0,1.374,0.0
mp-578604,Na1Cr1O2,4,6,166,40.70107946071669,4.36480371578805,10.175269865179173,2.92046056,-7.478484044375,-2.255811479719828,0.0,2.891,1.0
mp-17142,Na4Cr4P8O28,44,4,14,526.2723375949221,3.141769921996756,11.96073494533914,1.71457447,-7.783384039090908,-2.650525645060455,0.0,2.7876000000000003,1.0
mp-5693,Na1Cr1S2,4,6,166,71.22486759498263,3.243352266192656,17.806216898745657,4.10969451,-6.0097346,-1.191862754094826,0.0,0.9908999999999992,0.0
mp-3332,Na1Cr1Se2,4,6,166,82.74373277808579,4.67406148834394,20.685933194521446,3.33552856,-5.536158535,-1.039510734016702,0.0,0.780799999999999,0.0
mp-554430,Na2Cu2I6O18,28,5,2,437.2375238977757,4.642758771765293,15.61562585349199,3.4859362,-4.904452479642857,-1.008408598312808,1.0,0.056999999999999,1.0
mp-17869,Na4Cu4F12,20,5,2,230.8146690812994,4.130392555139203,11.54073345406497,0.90058427,-7.0708840335,-2.3130719495,0.0,0.080899999999999,0.0
mp-7469,Na4Cu4O4,12,1,139,177.46352725716636,3.837715995425951,14.78862727143053,2.01292192,-4.689022076666666,-1.226059258793103,0.0,1.2722,1.0
mp-4541,Na1Cu1O2,4,4,12,45.30668960996492,4.344419879857045,11.32667240249123,2.07426012,-5.19672806875,-1.362515704094827,0.0,0.4997,1.0
mp-7433,Na2Cu2Se2,6,1,129,111.36096815326336,4.935520852660742,18.560161358877227,3.79519351,-10.296944835,-0.7227659013541671,1.0,0.047699999999999,0.0
mp-1210069,Na1Dy1Pd6O8,16,0,200,190.5715801372084,8.295263343823844,11.91072375857552,3.55039987,-6.232400048124999,-1.443457847690371,0.0,0.041999999999999,1.0
mp-999490,Na1Dy1S2,4,6,166,89.85921186897164,4.61280897154459,22.46480296724291,2.13117783,-15.03806143,-2.134065940156251,0.0,2.285599999999999,0.0
mp-999488,Na1Dy1Se2,4,6,166,101.50303208585876,5.618012841815177,25.37575802146469,1.818006899999999,-18.0349348875,-1.992658823281249,0.0,1.8635,0.0
mp-12384,Na2Er2P4S12,20,5,2,459.9699488936433,3.210004958984951,22.998497444682165,2.7186780500000003,-5.3593206705,-1.202266266066501,0.0,2.5452,0.0
mp-1210068,Na1Er1Cu2F8,12,1,97,151.95355231209564,5.128787439905402,12.66279602600797,0.20952992,-5.374040885833334,-2.9224848917816093,0.0,0.7312000000000001,0.0
mp-3613,Na1Er1S2,4,6,166,88.12637098837186,4.793183690257751,22.031592747092965,2.19000351,-15.52339505,-2.133491574739583,0.0,2.324499999999999,0.0
mp-8584,Na1Er1Se2,4,6,166,99.8460568220724,5.790392345586091,24.9615142055181,1.87300071,-18.51038864,-1.982204590364581,0.0,1.9258,0.0
mp-1221406,Na3Eu3F12,18,5,1,249.5958137844006,5.008592795928699,13.866434099133366,-1.20517529,-6.743724066666666,-3.529517034396552,0.0,0.374,0.0
mp-22614,Na2Fe2Ge4O12,20,4,15,245.30420550006195,4.333860490983809,12.265210275003096,1.01097266,-6.920233539500001,-2.045677166637932,0.0,1.5846,1.0
mp-1102092,Na4Fe4S8O32,48,4,12,620.3368260587436,2.901260061136968,12.923683876223825,0.894954399999999,-6.757144760625,-1.951132330323275,1.0,2.0944,1.0
mp-880385,Na4Fe4Se8O24,40,3,62,561.0261806456218,3.939540328833898,14.025654516140545,1.42861492,-6.1949088945,-1.545775797106681,0.0,2.278299999999999,1.0
mp-561519,Na2Fe2Se4O16,24,4,12,339.21657075281,3.571061237877764,14.134023781367082,0.266571799999999,-6.121679400833333,-1.422741652172234,0.0,1.9104,1.0
mp-21867,Na4Fe4Si8O24,40,4,15,446.9142563275168,3.433214502583936,11.17285640818792,2.23514425,-7.764436356500001,-2.729421948637932,0.0,1.835799999999999,1.0
mp-556373,Na8Fe8Te16O48,80,3,61,1150.1718696087762,4.966795487272759,14.377148370109705,4.37660929,-6.251191343875,-1.672579363346264,1.0,2.1497,1.0
mp-1210072,Na2Fe4Pb2F18,26,4,15,361.0578670293352,4.717432340838633,13.886841039589816,-0.742362,-5.740298711153846,-2.723446277029177,0.0,1.198,0.0
mp-1210192,Na4Fe4Br16,24,3,62,775.7412598231787,3.411668827088438,32.32255249263245,-0.2843525,-3.951194876249999,-1.224606854813217,1.0,1.0155,0.0
mp-27514,Na4Fe4Cl16,24,3,19,621.732096610405,2.35723767395016,25.905504025433544,-0.12894212,-4.398466679999999,-1.530814481896551,0.0,0.2252,0.0
mp-1078217,Na2Fe2F6,10,3,63,115.10438847491388,3.919068409713153,11.51043884749139,0.49926876,-5.848301255000001,-2.737641432275862,0.0,2.2462,0.0
mp-18455,Na4Fe4F16,24,4,14,300.57783793893014,3.421390995759937,12.524076580788757,-2.38289709,-5.700511595416667,-2.789319680646551,1.0,2.953999999999999,0.0
mp-19359,Na1Fe1O2,4,6,166,42.09905783092161,4.371676734888313,10.524764457730402,2.52669208,-6.7247904325,-1.797874432844827,0.0,1.9918999999999991,1.0
mp-752506,Na2Fe2P4O14,22,4,4,277.4848635396679,3.025375104916984,12.612948342712178,0.98812611,-7.528462905454545,-2.503152353242273,0.0,2.5578000000000003,1.0
mp-19226,Na4Fe4P4O16,28,3,62,304.77983691752075,3.787807932755763,10.88499417562574,2.91463893,-7.413970674642856,-2.411247884074594,0.0,1.2607,1.0
mp-570622,Na16Ga48Se80,144,3,19,3832.975507684597,4.34582283116457,26.61788547003193,2.05303721,-4.093941713958333,-0.993323243469228,1.0,1.8605,0.0
mp-29462,Na4Ga12Te20,36,6,155,1134.95749761858,5.092464285458583,31.526597156071663,3.56754119,-3.608045371111109,-0.7033188919125141,1.0,1.2076,0.0
mp-3338,Na4Ga4O8,16,3,33,209.7742886267484,3.948785796431041,13.110893039171774,0.09320264,-5.783118308124999,-2.216683605344827,1.0,2.8582,1.0
mp-1094098,Na2Ga2Te4,8,1,122,271.5036237281028,4.255727693247973,33.93795296601285,1.793990089999999,-3.4601416475,-0.79603450055316,1.0,1.5786,0.0