material_id,composition,nsites,crystal_system,space_group,volume,density,density_atomic,efermi,energy_per_atom,formation_energy_per_atom,is_gap_direct,band_gap,is_oxide
mp-20928,Sb4Ru2,6,3,58,129.0524346923498,8.86779328609775,21.508739115391634,8.27765618,-25.90136487166667,-0.288975953333334,0.0,0.003499999999998,0.0
mp-723419,Sb8S76F48,132,4,14,3112.23618031106,2.306514000050649,23.57754682053833,2.16014837,-4.747840528333333,-1.418959838560605,0.0,1.9679,0.0
mp-2809,Sb8S12,20,3,62,515.7079119701428,4.375422722175947,25.785395598507144,4.40757171,-15.3901916535,-0.286665912187498,0.0,1.2866,0.0
mp-2160,Sb8Se12,20,3,62,579.4444338187419,5.506812533083567,28.972221690937097,3.80523339,-19.1539570185,-0.284494587937501,0.0,0.7564000000000001,0.0
mp-559894,Sb16Te16O72,104,4,14,1477.0711823312718,5.780372481655164,14.202607522416075,3.5195188,-6.218069496538462,-1.67374154948718,1.0,2.6727,1.0
mp-3525,Sb2Te2Se1,5,6,166,159.64137547529742,6.008844543825181,31.928275095059483,5.4098941400000005,-4.061714129999999,-0.453608981135414,1.0,0.130799999999999,0.0
mp-1201,Sb2Te3,5,6,166,169.92445719025892,6.120536415946441,33.98489143805178,6.00628528,-3.920783878000003,-0.383199846000002,1.0,0.1314,0.0
mp-8612,Sb2Te1Se2,5,6,160,149.37496419374227,5.881116641839947,29.87499283874845,4.83772651,-4.176821558000012,-0.498195292270844,0.0,0.486399999999999,0.0
mp-27318,Sb6Br4F32,42,4,15,696.6168172650678,3.952504604392618,16.586114696787327,-1.59488171,-4.528757511904762,-2.324827283809524,0.0,0.062699999999999,0.0
mp-1209457,Sb12Cl44F16,72,4,14,2145.175410423036,2.573839086943073,29.79410292254217,0.05421484,-3.814456575972221,-1.571324130416666,1.0,1.6636000000000002,0.0
mp-1219529,Sb6Cl18O2F8,34,5,2,971.1465674289722,2.654922683859657,28.56313433614624,-1.61497371,-4.101393034411765,-1.6527307152941182,0.0,2.2549,1.0
mp-1209215,Sb24I8O32,64,3,33,1384.300278465236,5.33735097648844,21.62969185101932,3.36670769,-5.7989733592187385,-1.5861158148437382,1.0,2.5352,1.0
mp-27700,Sb8Br4O10,22,4,14,462.420878973041,5.220155805003094,21.01913086241096,3.1123355,-5.6656935859090805,-1.617538762727261,0.0,2.376,1.0
mp-23419,Sb8Cl4O10,22,4,14,435.43029779945584,4.865666349436686,19.79228626361163,3.33577422,-5.777626486363638,-1.690999615,0.0,2.6466000000000003,1.0
mp-558592,Sb32Br8O44,84,5,2,1558.3899384973288,5.582965299198586,18.552261172587247,3.62144669,-6.006203937261905,-1.685562316071428,0.0,2.770299999999999,1.0
mp-557022,Sb32Cl8O44,84,5,2,1520.987262682935,5.332020965481229,18.10699122241589,3.5228755,-6.062741795238096,-1.721948148809524,0.0,2.883,1.0
mp-14673,F156S16Sb36,208,4,14,3715.88102045561,3.512514950194067,17.86481259834428,2.4391483943285603,-4.96380465576923,-2.495445193173076,1.0,1.7301000000000002,0.0
mp-15380,F156Se16Sb36,208,4,14,3827.625207264585,3.7354815416115743,18.40204426569512,2.4391483943285603,-4.927556183701923,-2.508615804939903,1.0,1.9538,0.0
mp-27786,Sb2As4Cl26,32,3,36,978.7921133158352,2.485373344415774,30.58725354111985,-1.141327819999999,-9.121804059375,-0.677861348593749,0.0,1.1627,0.0
mp-14368,Sb4As4O20,28,3,19,399.3150251213944,4.602237284234654,14.261250897192657,1.18977116,-6.524449165714293,-1.733173623214292,0.0,1.7582,1.0
mp-569209,Sb2As2P2Cl26,32,3,36,1066.4341435341428,2.144257700525446,33.32606698544196,-1.02892601,-3.5810498946875,-1.190696538571428,0.0,2.1081,0.0
mp-1219478,Sb4As4Rh4,12,4,14,236.8461863449075,8.40167352620913,19.737182195408955,7.31874174,-22.083174305,-0.5664825225000001,0.0,0.5387000000000001,0.0
mp-572526,Sb2Br2O4F12,20,4,13,331.7500037154141,3.480281812482345,16.587500185770704,-2.531740789999999,-4.56601073,-1.8515123265,0.0,1.9974,1.0
mp-2214131,Sb2Br10F12,24,4,15,630.9272707580413,3.343939619758506,26.288636281585056,-1.66366863,-10.58173105625,-1.3519908693750011,0.0,1.7545000000000002,0.0
mp-541259,Sb2Br10F12,24,4,15,665.0027401823623,3.172592487807427,27.708447507598432,-1.81020268,-3.475839454166666,-1.492768773749999,0.0,1.7316,0.0
mp-27308,Sb4Br4F32,40,3,54,616.8035479903874,3.808354721519352,15.420088699759685,-2.07727512,-4.19063161025,-2.082954932749999,0.0,2.7201,0.0
mp-560354,Sb2Cl2O4F12,20,3,59,322.3553695449458,3.123752092432366,16.11776847724729,-2.51533811,-4.63198589,-1.89632786,0.0,1.9238,1.0
mp-27353,Sb12Cl24F36,72,4,14,1774.5690905853562,2.803422154627933,24.64679292479661,-1.84599892,-4.305986410972222,-2.044712416805556,0.0,1.9134,0.0
mp-29391,Sb4Cl12F8,24,1,82,604.9230933108859,2.921995854701883,25.205128887953578,-1.75114224,-4.01483876375,-1.764449698750001,0.0,1.8283,0.0
mp-570796,Sb8Cl40,48,4,14,1411.6646060338362,2.813941454748994,29.40967929237159,-1.2791529,-10.144463107916666,-0.7330447383333331,1.0,1.537399999999999,0.0
mp-29940,Sb4Cl4F40,48,3,57,702.7283547562715,3.281690465690861,14.640174057422325,-2.93551569,-3.885674632708333,-1.7926689835416671,0.0,2.3709,0.0
mp-1204286,Sb2H72S8N22,104,4,4,1082.7363222095546,1.350776574686309,10.410926175091872,1.68856536,-4.967791126634615,-0.45568561701923,0.0,2.222099999999999,0.0
mp-849325,Sb2H8N2Cl12,24,4,15,480.3935794970207,2.43703237692071,20.0163991457092,-0.24568858,-4.089851998333334,-0.9949185366666672,1.0,1.9394,0.0
mp-1192718,Sb2H10Cl12O4,28,4,15,545.2381464941097,2.262929202966775,19.472790946218204,-0.89836965,-4.200163536428572,-1.193591233303571,1.0,1.781299999999999,1.0
mp-695843,Sb4H28Br24O12,68,4,14,1290.5381237923452,3.377532056059418,18.978501820475664,0.50435512,-4.146674544264705,-1.054866983308823,1.0,1.033,1.0
mp-560789,Sb4I4Cl8F24,40,3,64,888.676259250883,3.240526735228945,22.21690648127208,-0.47883768,-4.097700629749999,-2.01437925925,0.0,1.9054,0.0
mp-23281,Sb2I6,8,6,148,351.97797437316626,4.741073521538678,43.99724679664578,1.2762029,-2.8187120612500003,-0.643452289999999,0.0,2.1446,0.0
mp-23536,Sb1I3Cl8,12,5,2,405.8659284254895,3.216198670634946,33.82216070212412,-0.38278799,-2.784555281666666,-0.8271068245833321,0.0,1.2101,0.0
mp-27859,Sb3I15F18,36,5,2,987.402002506822,4.390679565726668,27.42783340296728,0.58152126,-3.498127241111112,-1.562112360694446,0.0,0.9323,0.0
mp-23403,Sb16I16F80,112,4,14,2369.345107405132,3.853588191673423,21.15486703040296,-0.02503627,-4.451314111071428,-2.276703292499999,0.0,0.5646,0.0
mp-1197652,Sb8N8Cl64O8,88,4,14,2867.002253572602,2.017388774243103,32.57957106332503,-1.72928178,-3.761257736022727,-0.833659336931819,0.0,1.7767,1.0
mp-1819,Sb4O8,12,4,15,153.68018971557615,6.645553853260452,12.806682476298011,5.64122176,-6.513981062916656,-1.839006646249989,0.0,2.028799999999999,1.0
mp-554847,Sb4P4Cl24O8,40,4,14,1157.6624202900346,2.280395989973577,28.941560507250863,-1.26676594,-4.61512451725,-1.561959159714285,0.0,2.340799999999999,1.0
mp-541668,Sb8P16O56,80,4,14,1059.654914190911,3.707070406032295,13.245686427386389,2.12935738,-7.346815667000024,-2.387248134428595,0.0,2.2876,1.0
mp-23574,Sb4P4Cl32O4,44,3,62,1387.8117224747918,2.165010505078649,31.541175510790723,-1.12315833,-4.038418061136364,-1.3765291365584411,0.0,1.8687,1.0
mp-9750,Sb2P2O10,14,4,15,173.36515074380551,4.458318418004147,12.383225053128966,2.18827689,-7.154836619999999,-2.257082364234693,1.0,2.5585,1.0
mp-572597,Sb12P12S48,72,5,2,2100.7869258180144,2.665293353861949,29.177596191916862,1.8213948,-4.946934647361111,-0.597282474801585,0.0,2.196,0.0
mp-1103317,Sb4Rh4S4,12,0,198,223.74553353107424,7.621354815175237,18.64546112758952,7.31296796,-19.96253025833333,-0.6700157776041651,0.0,0.871799999999999,0.0
mp-1102366,Sb4Rh4Se4,12,0,198,245.4847639307491,8.215287927330385,20.45706366089576,6.85145157,-5.770320454166668,-0.7739135916145831,0.0,0.3723,0.0
mp-1103434,Sb4Ru4S4,12,4,14,225.4336119818288,7.5102040314223295,18.786134331819063,7.74891812,-6.530900193333333,-0.683645744166666,0.0,0.9252,0.0
mp-1102395,Sb4Ru4Se4,12,4,14,244.07644139394293,8.212739944046893,20.339703449495243,7.01320957,-6.257886188333334,-0.6247811024479171,0.0,0.7549,0.0
mp-555288,Sb4S4Br12F24,44,4,14,923.3665107884696,3.650854117430045,20.98560251791976,-1.72261683,-4.106007545681819,-1.864069849090909,0.0,2.532,0.0
mp-28064,Sb2S16Cl6,24,5,2,694.5725615068525,2.317287026000717,28.94052339611885,-0.13605835,-4.342888689583334,-0.7777631745833331,0.0,2.8648,0.0
mp-22971,Sb4S4Br4,12,3,62,338.10093212572406,4.591719201212127,28.17507767714368,2.46687697,-4.089356465833333,-0.787920684999999,0.0,1.7767,0.0
mp-557809,Sb2S2Cl18,22,4,12,670.7084406869105,2.341620286958164,30.48674730395048,-0.85415725,-3.232821945000005,-0.968799580681823,1.0,1.7743,0.0
mp-23041,Sb4S4I4,12,3,62,381.2837437757244,4.890449799560453,31.7736453146437,3.30733908,-3.869324820833329,-0.6055336799999951,0.0,1.6276000000000002,0.0
mp-561328,Sb4Se4Br12F24,44,3,19,1065.9124255931208,3.454843247439195,24.225282399843653,-0.86230447,-4.102546201590909,-1.919012876803977,0.0,2.6001000000000003,0.0
mp-558026,Sb4Se4I12F24,44,4,14,1209.8389614847265,3.817957506721423,27.496340033743778,-0.11177493,-3.975579618636363,-1.8228464538494311,0.0,1.4501,0.0
mp-1205478,Sb16Se80F96,192,4,14,4432.140874123725,3.779856766397097,23.084067052727733,0.23673457,-4.347268876875,-1.589629470351562,1.0,1.468,0.0
mp-559000,Sb2Se12I2F12,28,4,13,719.300482429558,3.861806389205437,25.689302943912782,0.24304342,-4.127042741785714,-1.404785815290178,1.0,1.5285000000000002,0.0
mp-1209072,Sb4Se4Br4,12,3,62,367.6208373305021,5.070301437854808,30.635069777541844,3.64351066,-3.863614609166667,-0.7763281916145841,0.0,1.437799999999999,0.0
mp-572726,Sb8Se8Cl56O8,80,4,14,2575.7935384084417,2.397610396567087,32.197419230105524,-1.2894831,-3.665141731125,-1.113874398859375,1.0,1.9455,1.0
mp-28985,Sb4Se4Cl36,44,4,11,1287.1619025524583,2.682314395694453,29.253679603464967,-1.17425488,-9.252507754090908,-0.580705386960227,0.0,2.0148,0.0
mp-22996,Sb4Se4I4,12,3,62,403.92772149890897,5.3874314898745,33.66064345824241,3.03627075,-3.651522513333333,-0.60188073578125,0.0,1.3811,0.0
mp-554942,Sb4Te4I12F24,44,4,14,1256.725659311993,3.932591165861934,28.561946802545297,0.04717362,-4.012914414318182,-1.892236302651515,0.0,1.9198,0.0
mp-1219458,Sb4Te4Rh4,12,0,198,267.9220745965157,8.73314564238582,22.326839549709643,7.65538785,-5.5830248708333325,-0.7041532030555531,0.0,0.552099999999999,0.0
mp-1102857,Sb4Te4Ru4,12,4,14,267.42505422475244,8.70378741132592,22.28542118539604,8.19379594,-6.042988043333334,-0.527418152222221,0.0,0.6273999999999991,0.0
mp-4798,Sc2Al6C6,14,2,194,162.05768011564902,3.318515412872819,11.575548579689215,7.46180409,-6.811129310714286,-0.346101728928571,0.0,0.0223,0.0
mp-1219646,Sc19Ru4Br28,51,6,160,1417.890343243704,4.093995460608273,27.801771436151057,3.45623835,-5.699323834705883,-1.714048812450979,1.0,0.021199999999999,0.0
mp-2752593,Sc19Ru4Br28,51,4,8,1374.0510007840298,4.2246151165916,26.94217648596137,3.79058824,-15.130220365882352,-1.610258909509803,0.0,0.126199999999999,0.0
mp-28479,Sc2C1Cl2,5,6,164,103.44774306431248,2.774236608974617,20.6895486128625,2.33108536,-6.909065440000001,-1.7909275795,0.0,0.8824000000000001,0.0
mp-504934,Sc16C8I24,48,5,2,1416.2909111939043,4.526955963737055,29.50606064987301,3.81593549,-5.652939526458333,-1.241999268541665,0.0,0.5707,0.0
mp-10953,Sc4Cd2S8,14,0,227,314.0606907829909,3.495793711911953,22.432906484499348,2.60199755,-12.513851411428572,-1.793571593035713,1.0,0.9581,0.0
mp-401,Sc8S12,20,3,70,428.62771743663023,2.883972633977312,21.431385871831512,3.40977017,-11.551451251,-2.171056859687499,0.0,1.034999999999999,0.0
mp-7288,Sc4S2O4,10,2,194,136.0815087560316,3.757785187618736,13.608150875603162,4.72440988,-8.748418971000001,-3.4085750135,0.0,2.0102,1.0
mp-1205354,Sc8Se12,20,3,70,487.1980463863951,4.455277227996905,24.359902319319755,3.09486771,-15.1095513645,-1.963220283937502,0.0,0.625799999999999,0.0
mp-685069,Sc8Te12,20,5,2,610.6110570880912,5.14210440105083,30.53055285440456,5.15640091,-5.899462137,-1.480490958999999,0.0,0.0033,0.0
mp-557773,Sc6Te3O18,27,6,150,320.68155331361345,4.870183347995062,11.877094567170868,3.37959671,-7.98085356962963,-2.925741332592594,0.0,2.897,1.0
mp-1220626,Sc36In5Co13,54,4,12,1088.8053890710098,4.512218620060898,20.163062760574256,4.69525729,-6.512121737777778,-0.31769259228395,0.0,0.011899999999999,0.0
mp-15661,Sc8C6,14,0,220,187.74561495263885,3.818325156564481,13.410401068045632,5.66266003,-8.0583901,-0.484693971785713,1.0,0.3287,0.0
mp-1204900,Sc32Fe8Br40,80,1,134,2024.5029035050336,4.167958713573514,25.306286293812924,3.68811086,-5.7475536366250015,-1.549090606125,0.0,0.479299999999999,0.0
mp-1203959,Sc32Fe8Cl40,80,1,134,1786.6563353152376,3.070282475098019,22.33320419144047,4.83295023,-6.1533139635,-1.849052800499999,1.0,0.5076,0.0
mp-1203372,Sc20Co24Sn72,116,1,142,2446.4390050438283,7.371738488291912,21.089991422791623,8.25984336,-5.366894237586207,-0.310510126034482,1.0,0.007099999999999,0.0
mp-30863,Sc114Rh26,140,0,200,3012.7433071668534,4.299424758235072,21.51959505119181,4.37065847,-6.944455616,-0.420359311785713,0.0,0.0038,0.0
mp-1210377,Sc114Ru26,140,0,200,2994.357852324877,4.299358291183983,21.388270373749123,4.46156413,-7.165305371785714,-0.286477200285713,1.0,0.020799999999999,0.0
mp-541102,Sc12C4I22,38,5,2,1240.486618462942,4.523745523813372,32.64438469639321,3.2922083,-5.204011285,-1.350522633421052,0.0,0.374099999999999,0.0
mp-1189869,Sc7Co1Br12,20,6,148,540.2150788206562,4.095818238604394,27.01075394103281,3.45318996,-5.367541645,-1.812338701249999,0.0,0.216699999999999,0.0
mp-1189852,Sc7Co1Cl12,20,6,148,467.93838035115135,2.835568450302797,23.39691901755757,3.99014961,-10.332176561,-1.989531091749999,0.0,0.188,0.0
mp-541175,Sc7Co1I12,20,6,148,677.2330348698544,4.650062843155127,33.861651743492715,4.21586461,-4.844699334500007,-1.357256742750006,0.0,0.2411,0.0
mp-1190159,Sc7Ni1Br12,20,6,148,534.6556068564424,4.13766274077674,26.73278034282212,3.7578633,-5.2958567985,-1.80831785675,0.0,0.148399999999999,0.0
mp-8616,Sc2Ag2P4S12,20,6,163,488.798052527511,2.766409561178501,24.43990262637555,2.1711784,-5.437090917,-0.953439793095236,0.0,2.032499999999999,0.0
mp-13383,Sc2Ag2P4Se12,20,6,163,561.0232200306174,4.075887198057913,28.05116100153087,1.80491771,-4.903703720499999,-0.805521450501487,0.0,1.6441,0.0
mp-11022,Sc2Ag2O4,8,2,194,110.83397731096576,5.538115174152629,13.85424716387072,2.05572858,-7.391981858749986,-2.624149660416652,0.0,2.1264,1.0
mp-1094066,Sc1Ag1S2,4,6,160,83.6456551276697,4.306987351412815,20.911413781917425,3.2848562,-13.612637945,-1.406547278906249,0.0,1.2377999999999991,0.0
mp-1080747,Sc2Al2C2O2,8,2,186,92.53008536513671,3.587304858249117,11.56626067064209,6.03704088,-7.947113042500001,-1.883445184375,0.0,1.216699999999999,1.0
mp-1186984,Sc2Br6,8,2,194,300.2699630449898,3.148514650548815,37.53374538062373,-1.70359417,-4.8795625575,-2.068735379999999,0.0,2.2256,0.0
mp-3642,Sc2Cu2O4,8,2,194,102.27311664510334,4.562429088197455,12.784139580637918,3.53734489,-7.8067760525,-2.724876606249999,1.0,2.3309,1.0
mp-6980,Sc1Cu1S2,4,6,156,72.54168961050509,3.951686754982069,18.135422402626272,5.3532874,-11.052508035,-1.473687655156251,0.0,0.8709000000000001,0.0
mp-1219343,Sc2Cu2Se4,8,4,12,166.54951050832892,5.312582327309131,20.818688813541115,4.29372919,-14.00485249125,-1.287751537031249,0.0,0.6646000000000001,0.0
mp-1186991,Sc2I6,8,2,194,386.054045985782,3.661873491465322,48.25675574822274,-0.69312736,-4.199572586249999,-1.473445848749999,0.0,1.6942,0.0
mp-559760,Sc4I4O4,12,4,12,279.25215104220206,4.468341688896301,23.271012586850173,3.2977294,-7.1599064216666655,-2.891758846666664,0.0,1.9603,1.0
mp-1219325,Sc2Mn4Sb2O12,20,5,1,252.40839677039347,4.902353528641693,12.620419838519672,4.03821154,-8.366156125,-2.518829429086206,0.0,1.9542,1.0
mp-1219274,Sc1Nb1Ni2Sn2,6,6,160,111.63496843576516,7.328315541586617,18.605828072627528,7.16946295,-6.527731746666666,-0.525533210833331,0.0,0.424599999999999,0.0
mp-2713914,Sc3Nb9P18O72,102,6,143,1537.3115070055612,2.89537351959667,15.071681441230991,0.5121019,-8.483673573725492,-2.9577827061624653,1.0,1.815999999999999,1.0
mp-667315,Sc4Nb24Cl52O12,92,1,98,2267.471590794447,3.255301937000387,24.64643033472225,1.37207456,-6.705456247282609,-2.1047936925,0.0,0.923999999999999,1.0
mp-3432,Sc1Ni1Sb1,3,0,216,56.26662650851607,6.6522731462277545,18.75554216950536,7.3709767,-6.3774629199999975,-0.9635939116666632,0.0,0.2679,0.0
mp-6999,Sc2P2S8,12,5,2,279.55165723892,2.425776573977059,23.295971436576664,1.7180751,-9.830682505,-1.073922505704364,0.0,1.941999999999999,0.0
mp-569779,Sc1Sb1Pd1,3,0,216,64.0124422932965,7.085385842478886,21.33748076443217,6.59702657,-21.154497356666667,-1.1327451249999991,0.0,0.0155,0.0
mp-1100405,Sc1Te1Rh1,3,0,216,62.02817776932432,7.37430071971274,20.67605925644144,7.25990927,-6.831636710000002,-1.21827575388889,1.0,0.3846,0.0
mp-19247,Sc2V2O8,12,1,141,141.86916440353752,3.743053187023003,11.82243036696146,1.50552044,-8.909906478333333,-3.041869945833333,1.0,2.6851000000000003,1.0
mp-27358,Se8O20,28,4,14,438.1748259114776,3.606510002362265,15.649100925409916,-1.1179218,-5.55515236142857,-1.022062649955356,1.0,2.9034,1.0
mp-650178,Se40S8O24F8,80,3,19,1871.17467214839,3.50614615648142,23.389683401854874,1.05139142,-4.781011068,-0.943445833421875,0.0,1.4592,1.0
mp-651332,Se16Br64,80,6,159,3159.4466014742425,3.351731375743245,39.49308251842803,-1.573347689999999,-2.67889783825,-0.6701583147187501,0.0,2.2169,0.0
mp-861871,Se2I4,6,1,136,269.1099735539827,4.106691533751174,44.85166225899712,1.24762604,-2.366790484999998,-0.185478249114581,1.0,0.9079,0.0
mp-7614,Si4Ag32S24,60,3,33,1190.1726262053887,6.046393682787592,19.83621043675648,2.89781867,-15.474239945,-0.285521528458332,1.0,1.1051,0.0
mp-1206152,Si2Ag4P4,10,1,122,182.90524136304475,5.551968550928216,18.29052413630448,5.07151014,-14.007148035,-0.109213733190475,0.0,0.169999999999999,0.0
mp-557690,Si6Mo12P18O75,111,6,147,1442.1928891881996,3.543171363155059,12.992728731425222,2.885981939999999,-8.30581767054057,-2.6186527306177902,1.0,1.8837,1.0
mp-1219334,Si4P6Rh2O26,38,6,150,517.49872496505,2.952012459738421,13.618387499080262,2.21091628,-7.809019366578949,-2.609816336522557,0.0,2.0386,1.0
mp-569815,Si16Ru8,24,3,64,334.7715977756878,6.239593205782115,13.94881657398699,9.87716065,-14.885761833333332,-0.561740338333334,0.0,0.407,0.0
mp-18310,Si6Ag6Sn4P12,28,0,217,574.5082490996895,4.804503081356332,20.51815175356034,6.30574918,-4.790677663571428,-0.125195378775508,0.0,0.2673,0.0
mp-8311,Si3Ni1P4,8,1,121,138.20486133585467,3.20615683555474,17.275607666981834,7.15695372,-9.57518140125,-0.286266877113094,0.0,0.3365,0.0
mp-22192,Si24Ru16,40,3,60,550.2679727401842,6.914050613111794,13.756699318504603,9.27592626,-16.0534295545,-0.6193566795000011,1.0,0.551099999999999,0.0
mp-14983,Si4P4Ru1,9,5,1,151.08453487858102,3.707272429263886,16.78717054206456,6.93331539,-11.126387976666669,-0.401065874100529,0.0,1.4604,0.0
mp-1203760,Si28Tc16,44,1,116,594.6515215027969,6.574545046632411,13.514807306881748,10.93376325,-15.578621689772728,-0.553621656590911,0.0,1.0648,0.0
mp-1863,Si6As6,12,4,12,288.35662420758007,3.55907857134658,24.029718683965005,3.05538631,-11.860332183333334,-0.119684392083333,0.0,1.451899999999999,0.0
mp-978553,Si8As16,24,3,55,592.9633567752937,3.986183011727875,24.706806532303904,3.90331174,-12.838872944583336,-0.109264087916666,0.0,0.8890999999999991,0.0
mp-569128,Si8B24,32,3,74,325.62657183715186,2.468922187401574,10.175830369910996,5.28319771,-7.7473567178125,-0.0441499209375,0.0,1.408,0.0
mp-1204356,Si19C19,38,6,160,391.9374525744493,3.227670169340689,10.314143488801298,9.86867141,-7.530873927868422,-0.203882166618421,0.0,1.8389,0.0
mp-1078195,Si2I6,8,6,148,359.69755994118,3.774429609972908,44.9621949926475,-0.324872899999999,-3.156084061249998,-0.656745092499998,1.0,2.9566,0.0
mp-635441,Si8I32,40,0,205,1848.3202371953128,3.850226265766585,46.20800592988283,-0.52067168,-2.984738963749998,-0.6804652657499981,1.0,2.8558,0.0
mp-2798,Si12P12,24,3,36,520.8539229316051,2.259448359192474,21.70224678881688,3.50735638,-9.057882655833334,-0.169962202321427,0.0,1.7395,0.0
mp-9996,Si8P16,24,3,55,525.5840606792137,2.27561472762978,21.899335861633904,3.4854361,-9.068363137916666,-0.142390731567459,1.0,1.4262,0.0