material_id,composition,nsites,crystal_system,space_group,volume,density,density_atomic,efermi,energy_per_atom,formation_energy_per_atom,is_gap_direct,band_gap,is_oxide
mp-189,Si4Ru4,8,0,198,104.39365818349005,8.217654487757938,13.049207272936254,9.86658189,-17.7536825925,-0.6545326474999981,0.0,0.229899999999998,0.0
mp-1250007,Si8Se16,24,4,14,691.0016622931032,3.575903401765799,28.7917359288793,3.26404458,-12.984201890416664,-0.5185735381249991,1.0,2.4771,0.0
mp-36381,Sn1P2S6,9,6,146,214.63247137182395,2.8861429183623573,23.848052374647104,2.59310662,-10.4607197,-0.354016266980821,0.0,1.194299999999999,0.0
mp-557101,Sn2S32I8,42,3,43,1405.7454001299482,2.691760365417985,33.470128574522576,-0.41673548,-4.177985769761905,-0.543729798571433,1.0,1.7979,0.0
mp-759223,Sn8S16O64,88,3,61,1124.3141922585494,3.67266727701844,12.776297639301696,1.09639193,-6.52962338465909,-1.814170745568181,1.0,2.5683,1.0
mp-27947,Sn1Sb2Te4,7,6,166,234.2492002143287,6.1858747195779,33.464171459189814,5.96380069,-3.970287361428571,-0.421601945952379,1.0,0.2525,0.0
mp-556672,Sn4Se8O24,36,0,205,558.291733790787,4.433242743861875,15.508103716410751,0.92477661,-6.033904283611111,-1.512886412465277,0.0,2.5822000000000003,1.0
mp-1198561,Sn15Ru3O14,32,4,8,547.1870595528774,7.003597169945471,17.099595611027418,6.13322389,-6.415831452812501,-1.50213646796875,0.0,1.417199999999999,1.0
mp-768950,Sn4S6O24,34,6,148,500.5396761499503,3.487405003827152,14.72175518088089,1.1693481,-6.534262358823527,-1.8395709192647032,0.0,2.594,1.0
mp-1203896,Sn21H14Cl16O20,71,6,155,1359.0420219770797,4.147257056899028,19.14143692925464,2.46491062,-5.118822506338028,-1.45305850637324,0.0,2.9683,1.0
mp-27480,Sn4O2F4,10,4,12,185.46912565968609,5.218205387515363,18.546912565968608,2.8235071,-5.564225162,-2.205263268999999,0.0,2.6708,1.0
mp-29590,Sn4O2F10,16,4,12,228.95681025911887,5.053798285036001,14.309800641194936,1.611940199999999,-5.452490683125,-2.635444859375,0.0,1.9107999999999992,1.0
mp-555836,Sn4P2Cl2O8,16,3,40,283.72195468212544,4.305764312204171,17.73262216763284,3.24181987,-6.523726189375,-2.139350682455357,1.0,2.570599999999999,1.0
mp-1509,Sn8S12,20,3,62,496.657169252844,4.461675175551384,24.8328584626422,4.78514416,-15.1927878425,-0.473314881187499,0.0,0.7774000000000001,0.0
mp-23386,Sn24S12I24,60,3,62,2169.6856478165105,4.805949829052046,36.16142746360851,3.51834247,-3.774057207,-0.7329515055000001,1.0,1.6389,0.0
mp-560715,Sn10P4O20,34,5,2,585.9139303593291,4.622370160247582,17.232762657627326,3.10795355,-6.872651127058823,-2.145685457899159,1.0,2.6984999999999992,1.0
mp-978114,Sn10O12,22,4,14,392.7930081341573,5.830138071308603,17.854227642461694,4.93165098,-6.283619264090915,-1.762198781818187,0.0,1.7702,1.0
mp-29862,Sn4Br8,12,3,62,397.626590899177,4.652505947406003,33.135549241598085,0.94766359,-3.601168219999998,-1.173346578333331,0.0,2.5387,0.0
mp-23216,Sn4Br16,20,4,14,791.3655785001996,3.67899472345487,39.56827892500998,-2.40682028,-3.228894540499999,-1.117422941499999,0.0,2.7107,0.0
mp-1218953,Sn1Ge4Te4Se1,10,6,160,280.3102500103596,5.915816949317668,28.03102500103596,5.43366062,-4.243446988,-0.38636515540104,0.0,0.6132999999999991,0.0
mp-5045,Sn4Ge4S12,20,4,14,531.9924307893194,3.590124056442368,26.59962153946597,2.88768618,-4.8938272365,-0.6842915539999991,0.0,1.6591,0.0
mp-23763,Sn1H8N2Cl6,17,0,225,249.1790537538172,2.449067317795603,14.657591397283362,-0.08985767,-4.451583434705883,-0.984600160882353,1.0,2.3281,0.0
mp-27194,Sn3I6,9,4,12,362.5936855637524,5.117978698029424,40.28818728486138,3.00863636,-3.097282174444444,-0.7447498127777771,0.0,1.7061000000000002,0.0
mp-23182,Sn8I32,40,0,205,2007.944068688568,4.14370869969513,50.1986017172142,-0.40738906,-2.6984767285,-0.6773522655,1.0,2.0581,0.0
mp-571146,Sn4I4Cl4,12,3,62,404.2212474258896,4.618495611079851,33.68510395215747,2.46076628,-3.53529634,-1.074587249999999,0.0,2.5118,0.0
mp-2097,Sn2O2,4,1,129,71.07659251782975,6.294342860686033,17.769148129457438,6.30205676,-6.1084688325,-1.629702402499999,0.0,0.4096,1.0
mp-856,Sn2O4,6,1,136,72.82143907393863,6.8731915563027774,12.136906512323106,5.59411961,-6.742646626666667,-2.107482005,1.0,0.6519,1.0
mp-559064,Sn4P8Cl40O8,60,3,58,1673.724811316862,2.250871929901602,27.895413521947702,-0.33066215,-4.417385506833333,-1.535927579119047,1.0,2.9839,1.0
mp-28293,Sn2P2Cl18,22,5,2,609.2518097894184,2.555250704825084,27.6932640813372,-0.14288195,-8.980807942272726,-0.8789706541341991,0.0,2.4343999999999992,0.0
mp-1007694,Sn4P4O16F4,28,3,62,360.8828516076273,4.282540313575255,12.888673271700975,1.68857796,-6.980217265357143,-2.532968440306123,0.0,2.9746,1.0
mp-13923,Sn4P4S12,20,4,7,491.6797092754763,3.321603737114868,24.58398546377381,3.40953879,-11.9773139465,-0.406662478782736,0.0,2.1301,0.0
mp-2231,Sn4S4,8,3,62,204.3235483638381,4.9013983903761495,25.540443545479764,5.56809629,-16.86219161875,-0.47160018765625,0.0,0.904799999999999,0.0
mp-1170,Sn1S2,3,6,164,72.82621589710445,4.169006438095262,24.275405299034816,3.62227361,-14.078722473333334,-0.473328491874999,0.0,1.514799999999999,0.0
mp-691,Sn4Se4,8,3,62,226.25694595101305,5.8029379989225,28.282118243876628,4.78982135,-19.98241831375,-0.45354630828125,0.0,0.5159,0.0
mp-665,Sn1Se2,3,6,164,82.9070527059618,5.54060127577694,27.6356842353206,2.7044050200000003,-18.21366485,-0.423896769375,0.0,0.7018,0.0
mp-560193,Sn2Se4Cl16O4,26,4,15,785.3291178882758,2.504577735122632,30.204966072626,-1.28027852,-3.9004865303846152,-1.155435821129807,0.0,2.7633,1.0
mp-1883,Sn1Te1,2,0,225,64.66821344829322,6.324705070463654,32.33410672414661,6.32206963,-25.346753925,-0.265049880000002,1.0,0.0419,0.0
mp-27352,Sr4Ag24O16,44,3,52,724.764456025968,7.320905973344463,16.471919455135637,1.53991871,-4.35804709090909,-0.8542381654545431,0.0,1.029699999999999,1.0
mp-8422,Sr2Al4Se8,14,3,66,379.30636880221584,4.005041581840955,27.09331205730113,1.96613926,-13.738995520714283,-1.473838570178571,0.0,2.9755000000000003,0.0
mp-37091,Sr1Al2Te4,7,1,97,237.3892010310864,4.560626034167874,33.912743004440905,3.56022874,-19.608138668571428,-0.996887958571428,0.0,1.4454,0.0
mp-8947,Sr4B8S16,28,4,14,532.0069457929131,2.965234589618673,19.00024806403261,3.44654079,-5.748403975,-1.233453989047618,1.0,2.8280000000000003,0.0
mp-11919,Sr2Be4N4,10,1,140,119.03913309012724,3.728923975082449,11.903913309012726,2.88008614,-6.367530039,-1.197968177,0.0,1.548399999999999,0.0
mp-7771,Sr1Cd2As2,5,6,164,129.7739406967151,5.915229439668432,25.95478813934302,2.79757789,-3.195508164,-0.604969456999999,1.0,0.134799999999999,0.0
mp-8277,Sr1Cd2P2,5,6,164,120.3419240902255,5.166017042088107,24.0683848180451,3.20987395,-3.460792255999996,-0.5721131518571381,1.0,0.7109000000000001,0.0
mp-13900,Sr2Cu4O4,10,1,141,146.0255623515541,5.610975434093636,14.60255623515541,3.5560962,-5.619746528999999,-1.662393840999998,1.0,1.815999999999999,1.0
mp-21926,Sr8Fe16O32,56,4,14,798.764012414281,4.379091191263277,14.263643078826446,1.25261722,-7.637244786607142,-2.148056996607141,1.0,1.936,1.0
mp-972120,Sr4Ga8As8,20,4,10,488.5332014127435,5.124502894387121,24.426660070637176,3.45953974,-14.267304194,-0.7780492049999991,1.0,0.155899999999999,0.0
mp-14425,Sr8Ga16S32,56,3,70,1321.8633762519985,3.570914906813961,23.60470314735711,2.13138793,-4.9295160383928565,-1.4577934091071412,0.0,2.797399999999999,0.0
mp-1104062,Sr2Ga4Se8,14,3,66,380.5906635094256,4.737460526113051,27.1850473935304,1.513190499999999,-14.838767199285714,-1.227702357321429,0.0,1.8012,0.0
mp-6987,Sr2Ga4Te8,14,3,66,473.0690027108671,5.177219797838616,33.79064305077622,3.14849283,-20.841399764285715,-0.884241162857145,0.0,0.451899999999999,0.0
mp-643905,Sr4H16N8,28,4,14,325.74279732373043,2.440068357286912,11.633671332990373,0.01429486,-7.397418311785715,-0.651188023571428,0.0,2.342,0.0
mp-1179405,Sr2H8O12,22,4,9,225.94158759417448,2.758209356440244,10.270072163371568,0.7994919500000001,-5.466526497727273,-1.3791756,0.0,0.011199999999999,1.0
mp-1205860,Sr2In4As4,10,2,194,286.0366009418968,5.423337202466361,28.60366009418968,4.69029578,-3.908601878999997,-0.598397750666663,0.0,0.445599999999999,0.0
mp-1078973,Sr2In4P4,10,2,194,264.39161755342235,4.763254384698171,26.43916175534224,5.40926563,-4.191463969000002,-0.5831194435238101,1.0,0.1833,0.0
mp-21781,Sr8In16S32,56,3,70,1473.6801375138166,4.016050451998058,26.315716741318152,2.805732019999999,-4.7244177876785685,-1.329530095297614,0.0,2.1496,0.0
mp-21733,Sr8In16Se32,56,3,70,1674.6037053291068,5.022230095694609,29.90363759516262,2.31035127,-4.288760746249999,-1.260986248065475,1.0,1.563699999999999,0.0
mp-20397,Sr2In4Te8,14,3,66,516.0508974849713,5.326432444566824,36.86077839178366,3.67016217,-3.792298972857147,-0.966013380000003,0.0,0.883799999999999,0.0
mp-570097,Sr1Li4P2,7,6,166,124.09152381427629,2.372973707555022,17.72736054489661,2.28527014,-7.061272954285714,-0.9617530475170072,0.0,0.9758999999999992,0.0
mp-863260,Sr1Mg2As2,5,6,164,125.264240451145,3.792269228603565,25.052848090229,2.83524461,-11.72613667,-1.146270626999999,0.0,1.3464,0.0
mp-9566,Sr1Mg2Sb2,5,6,164,151.98170297497066,4.149115967237185,30.396340594994133,3.8032946,-3.457815288,-0.8155411680000001,0.0,0.9813,0.0
mp-766173,Sr4Rh8O16,28,3,59,376.2761649721047,6.309452567787765,13.438434463289454,3.68369657,-6.924618331785714,-1.7513486389285702,0.0,1.3103,1.0
mp-1079784,Sr2Ru4O12,18,6,162,247.92515483215067,5.167394755281271,13.77361971289726,2.51172882,-7.459760235000001,-1.912093657222223,0.0,0.028299999999999,1.0
mp-9126,Sr1Sb2O6,9,6,162,130.62700440571982,5.429785994049993,14.514111600635536,2.4277574,-6.790515183333334,-2.3862711166666672,0.0,2.7881,1.0
mp-17678,Sr4Sc8S16,28,3,62,610.0770815074989,3.329279432980175,21.788467196696388,3.62313519,-12.29410640107143,-2.282301814107143,0.0,1.356999999999999,0.0
mp-9379,Sr1Sn2As2,5,6,166,140.1375879172394,5.627056362192557,28.02751758344788,5.37592517,-19.434936578,-0.6243184570000011,1.0,0.0091,0.0
mp-29035,Sr4Y8S16,28,3,62,689.0721275925979,3.794902866439433,24.60971884259278,2.95930013,-14.998057446071428,-2.439077543392857,0.0,1.8122,0.0
mp-1193100,Sr4Y8Se16,28,3,62,782.1981785610218,4.935958137538388,27.93564923432221,3.88204931,-18.4129252225,-2.267338949107142,1.0,1.458699999999999,0.0
mp-7770,Sr1Zn2As2,5,6,164,111.91806188662513,5.464223645275716,22.383612377325026,3.21587379,-3.37415843,-0.6637263550000001,0.0,0.254,0.0
mp-8276,Sr1Zn2P2,5,6,164,102.37357470243802,4.547961890208605,20.474714940487605,3.75989231,-11.004675912,-0.810472131190476,0.0,0.8285999999999991,0.0
mp-1218894,Sr10P6O25,41,6,143,594.5196228758557,4.083555540200049,14.500478606728189,5.28036756,-7.539713813170732,-3.317368760069687,0.0,2.6772,1.0
mp-578752,Sr22In2Sb18,42,3,45,1464.209107486096,4.932090163899657,34.86212160681181,3.84004547,-3.872071587380953,-1.084600449603174,0.0,0.9265999999999992,0.0
mp-1192393,Sr14Sn3As12,29,6,146,866.2341069806295,4.757652384707413,29.870141620021705,3.09861806,-17.1596422937931,-1.202118908620691,0.0,0.9128,0.0
mp-571416,Sr28Al16Ge6,50,6,148,1668.651573594777,3.304759328574066,33.37303147189554,2.5500243300000003,-3.0304164218,-0.3293090832,0.0,0.0556,0.0
mp-530564,As44Mn4Sr56,104,3,45,3081.9380241138974,4.53829958406296,29.634019462633628,2.4391483943285603,-4.317584302788462,-1.078070594728117,0.0,0.109699999999999,0.0
mp-767781,Sr16Mn8O29,53,5,1,734.0964939954681,5.214870732668526,13.850877245197507,2.57113289,-7.342378082075472,-2.7411358005367603,0.0,0.3805,1.0
mp-757304,Sr16V12O39,67,5,1,874.0100308358382,5.010428376135057,13.04492583337072,3.82714467,-7.856141602985074,-2.94485501380597,0.0,0.6957,1.0
mp-767432,Sr16V8O31,55,5,2,745.048135867925,5.138275021230442,13.546329743053182,3.75509353,-7.578150615999997,-2.975661722272724,0.0,0.464299999999999,1.0
mp-1219532,Sr18Ca3Cr14O56,91,6,146,1472.760318922126,3.744776364603279,16.184179328814572,2.10464314,-7.58018953142857,-2.649321552087911,0.0,0.4261,1.0
mp-1077553,Sr2B1Br1N2,6,6,166,132.631012945884,3.680481673958626,22.105168824314003,1.51197353,-6.35307604,-1.623451044027778,0.0,2.4076,0.0
mp-569810,Sr8B4I4N8,24,4,11,592.3270542721564,3.823510170915194,24.68029392800652,1.77565438,-6.194388354583332,-1.48358567861111,0.0,2.532599999999999,0.0
mp-23131,Sr8B4N8Cl4,24,3,62,489.1841291678513,3.387954480054611,20.38267204866047,1.7398816300000002,-6.47286355,-1.70797250986111,0.0,2.7508,0.0
mp-10234,Sr8B4N8F4,24,3,62,402.8629841612034,3.84259567049275,16.785957673383475,2.0463315,-6.799023336249999,-2.023247366944444,1.0,2.5675,0.0
mp-23056,Sr2Br1N1,4,6,166,98.44161153036072,4.540104994267548,24.610402882590183,2.55923509,-4.854374547499999,-1.514354432499999,0.0,1.8455,0.0
mp-19116,Sr4Ca2Mo2O12,20,4,14,286.3458538296092,4.723391885723999,14.31729269148046,2.01840983,-7.5118813395,-2.9194941195,0.0,2.561199999999999,1.0
mp-863261,Sr4Cd2As4,10,3,36,290.6828833155329,4.9984106544198,29.068288331553287,2.57056619,-3.678252174000002,-0.941229887000002,1.0,0.5223,0.0
mp-23114,Sr8Co4Br8O8,28,1,139,584.3483970130786,4.84201840479587,20.869585607609952,3.7994372,-5.728436936428571,-2.344424367857143,0.0,0.3275,1.0
mp-23130,Sr4Co2Cl4O4,14,1,139,248.9301781684916,4.4970937899689964,17.78072701203511,4.20038511,-5.955900104285715,-2.51143146,0.0,0.5379,1.0
mp-17540,Sr4Co2Se6O18,30,5,2,475.14047697784633,4.298984998793555,15.838015899261544,1.49093039,-6.360542115,-1.9913650231354167,0.0,2.9627,1.0
mp-1191317,Sr4Co2Ge4O14,24,1,113,368.27191849131054,4.431889668818522,15.344663270471273,2.21458914,-7.04449226625,-2.5111542958333333,1.0,2.15,1.0
mp-1275355,Sr8Co4O16,28,4,12,377.1589462437391,5.251093827128319,13.469962365847824,2.29698724,-6.678042948928572,-2.348026246071429,0.0,0.7733999999999991,1.0
mp-561642,Sr4Co2Te2O12,20,4,14,261.03340450061205,5.824115097095763,13.051670225030602,4.01083871,-6.6669557265,-2.332021244166666,1.0,1.509999999999999,1.0
mp-1029923,Sr8Cr4N12,24,3,64,378.3237135692471,4.727279025742861,15.763488065385294,4.67589738,-13.18384336625,-1.058690608958334,1.0,0.2709,0.0
mp-19514,Sr16Cr8O32,56,3,33,825.2423517880527,4.688125230729009,14.736470567643796,2.52808739,-7.478383883035714,-2.788419930178571,0.0,1.9972,1.0
mp-1084823,Sr2Cr1Sb1O6,10,4,12,127.78675562107809,5.782504039660558,12.778675562107807,3.90565263,-7.358997936,-2.673530843999999,0.0,1.6894,1.0
mp-10950,Sr2Cu1P2O8,13,4,12,191.6322401270692,3.715036648861915,14.740941548236094,2.13792139,-7.337577946153846,-2.883831950714285,0.0,0.2216,1.0
mp-552537,Sr2Cu1Br1O2,6,6,166,133.98229244984466,4.346338922638349,22.33038207497411,1.87359774,-5.580716716666668,-2.411228150833334,0.0,2.3439,1.0
mp-561243,Sr6Cu3Cl3O6,18,6,152,392.5673396462439,3.886109050955812,21.809296647013547,2.00849018,-5.710129779444444,-2.505375169444444,0.0,2.384299999999999,1.0
mp-556507,Sr8Fe4Br4O12,28,1,129,492.9324665122417,4.837273342753482,17.604730946865775,3.04516351,-6.613424660357142,-2.565466526071428,0.0,1.1631,1.0
mp-1078746,Sr2Fe1H6,9,0,225,101.93585667503194,3.862899920891555,11.326206297225772,1.88906222,-4.199036381111103,-0.618383489722214,0.0,1.3141999999999991,0.0
mp-1173284,Sr24Fe12Mo12O72,120,5,1,1543.365702749856,5.461649635906223,12.8613808562488,4.10244327,-7.771415679416667,-2.532586326416668,0.0,0.6149,1.0
mp-1218828,Sr8Fe4O12F4,28,1,107,402.5402772313181,4.918525426104614,14.376438472547076,3.57560308,-6.977596956785713,-2.890080845357141,0.0,0.626,1.0
mp-1218824,Sr4Fe2Sb2O12,20,4,12,258.08658305849883,5.775725886831556,12.90432915292494,3.71913991,-7.0909342075,-2.523769741499999,0.0,1.6733,1.0
mp-867219,Sr4Ga2Ge2N2,10,4,11,238.6793636535426,4.614147224833469,23.86793636535426,2.98170299,-4.605898672,-0.7310471115,0.0,0.030599999999999,0.0
mp-2576,Sr8Ge4,12,3,62,404.3083594015766,4.072282101097739,33.692363283464715,2.6666555,-15.341575461666666,-0.6204755550000011,1.0,0.363399999999999,0.0
mp-18112,Sr8Ge8Se20,36,4,14,978.7136373877252,4.854604083338215,27.186489927436813,2.06450342,-4.670990235000001,-1.325382537413196,0.0,1.369799999999999,0.0
mp-29089,Sr16Ge8N16,40,1,135,749.4747031062218,4.8901639190046975,18.736867577655545,3.53201254,-5.741364282250002,-0.8044763772500021,1.0,0.0529,0.0
mp-4578,Sr4Ge2S8,14,4,11,355.9348598693683,3.509603778287727,25.423918562097736,2.55201664,-5.193057459285713,-1.684297129999998,0.0,2.329099999999999,0.0
mp-30293,Sr4Ge2Se8,14,3,40,412.7644579736992,4.535657392688581,29.48317556954994,1.43666982,-4.712352684285731,-1.570705549196445,1.0,1.7283,0.0
mp-1095649,Sr2H3N1O6,12,2,189,139.79828634198253,3.424065450255136,11.649857195165213,0.08065363,-6.2140245316666665,-1.914324592395833,0.0,2.9533,1.0
mp-35152,Sr2H5Rh1,8,1,107,110.45662396117456,4.257237554609883,13.80707799514682,2.38173076,-9.6199157825,-0.6570266854687501,0.0,0.580299999999999,0.0
mp-24292,Sr2H6Ru1,9,0,225,109.7325439914482,4.272806178716852,12.19250488793869,1.21048843,-9.185292585555556,-0.6912334919444441,0.0,2.236099999999999,0.0
mp-690794,Sr2H1N1,4,6,166,79.3732125890664,3.980250414677526,19.8433031472666,1.97406357,-11.477078275,-0.758281971875,1.0,1.8058,0.0
mp-569677,Sr2I1N1,4,6,166,108.63883360501433,4.83235461313041,27.15970840125357,3.25263171,-4.585333094999999,-1.273546459999999,0.0,1.7923,0.0
mp-22355,Sr4In2Sb2O12,20,4,14,278.0100614586075,6.06629591287356,13.900503072930372,3.70141075,-6.577850667999999,-2.581770948666666,0.0,1.7824,1.0
mp-541568,Sr8Li12Nb4N16,40,3,58,557.6955733985552,4.10890573311658,13.94238933496388,3.27339541,-6.253893079500001,-0.9972889995,1.0,2.1559,0.0
mp-1218762,Sr2Li7Cu1N4,14,3,44,196.993541639694,2.894657249249262,14.070967259978142,1.60728313,-4.394250449285715,-0.522848028095238,0.0,0.5680000000000001,0.0
mp-569001,Sr4Li2Co2N4,12,1,136,217.6254748591311,4.10702732009549,18.135456238260925,2.76949114,-5.4898491116666674,-0.639223902222222,0.0,0.2539,0.0
mp-1078539,Sr2Mg1Mo1O6,10,1,87,127.84498276789084,5.084831210994781,12.784498276789083,2.85410083,-7.415587565999999,-2.860713332499999,0.0,2.313,1.0
mp-1201675,Sr8Mn8Se4O16,36,3,62,641.7339943268606,4.430702390165493,17.82594428685724,1.92696847,-7.403081202777778,-2.403454284800647,0.0,1.8317,1.0
mp-555929,Sr4Mn2Mo2O12,20,4,14,267.5680264466202,5.239322020701259,13.37840132233101,3.73677476,-7.956838284,-2.648809522793103,1.0,0.930099999999999,1.0
mp-1285223,Sr8Mn4Nb4O24,40,4,12,521.3181162052191,5.339542673414509,13.032952905130475,3.10447938,-8.228456148000001,-2.994861893793104,0.0,1.202,1.0
mp-559244,Sr8Mn4P12O44,68,4,14,858.1538439419526,3.8630042085444254,12.619909469734596,2.03340551,-7.856708940735237,-2.961364052315213,0.0,0.103499999999999,1.0
mp-1218763,Sr2Mn1Sb1O6,10,1,87,129.89841091341515,5.726110427125111,12.989841091341514,4.04157468,-7.22355378,-2.587189905793104,0.0,0.8793000000000001,1.0
mp-1191740,Sr4Mn2Si4O14,24,1,113,353.95302321400425,3.737598685242988,14.748042633916844,2.45302328,-8.046011655416667,-3.209908774827586,0.0,2.8825000000000003,1.0
mp-1208762,Sr4Mn2Te2O12,20,4,14,270.2419925849389,5.5765588918265525,13.512099629246944,5.4419757,-7.049533311500001,-2.511738971959771,1.0,1.4722,1.0
mp-23033,Sr2N1Cl1,4,6,166,92.38896942904702,4.038605825015194,23.09724235726176,2.7925025100000003,-13.0337000625,-1.640572135312501,1.0,1.9398,0.0
mp-531195,Sr32N16F16,64,3,63,1228.2636256042097,4.504559081073723,19.191619150065776,2.51990462,-5.45719257203125,-2.04794599703125,0.0,1.5754,0.0
mp-3870,Sr4Nb4O14,22,3,36,310.74594948079374,5.055677253984123,14.124815885490625,1.45573385,-8.593382337272727,-3.300364764999999,0.0,2.6843999999999992,1.0
mp-1206057,Sr2Nb1Al1O6,10,0,225,122.2325707552347,5.313454563867059,12.22325707552347,6.24469328,-8.058527036,-3.366576727999999,1.0,2.8384,1.0
mp-1205690,Sr8Nb4Cr4O24,40,0,225,515.0960757994159,5.366104692595314,12.877401894985397,3.02637809,-8.38673944975,-3.10404197775,0.0,2.2687,1.0
mp-1218741,Sr4Nb2Fe2O12,20,0,225,260.5424451833529,5.353493291227974,13.027122259167646,2.86989523,-8.088352271,-2.923957425,0.0,1.7829000000000002,1.0
mp-17701,Sr8Nb4N12,24,4,15,429.5279448690778,4.796368323339664,17.89699770287824,2.40290976,-7.637901558749999,-1.221069149583333,0.0,2.2935,0.0