material_id,composition,nsites,crystal_system,space_group,volume,density,density_atomic,efermi,energy_per_atom,formation_energy_per_atom,is_gap_direct,band_gap,is_oxide
mp-28510,Li24Bi8O24,56,5,2,682.38276178496,5.408113280673483,12.185406460445716,1.47422843,-5.454331520357142,-1.959947816785713,0.0,2.4379,1.0
mp-557738,Li12Bi4O16,32,1,136,321.12812542354715,6.076926929557232,10.035253919485848,2.06593126,-5.5632937390625,-1.8872128728125,0.0,1.2236,1.0
mp-569112,Li6Ca2Mn2N6,16,6,148,177.93119963527633,2.946434102955425,11.12069997720477,3.82414688,-6.036720694375,-0.79806856849138,1.0,0.073199999999999,0.0
mp-780606,Li6Cr4P6O24,40,5,1,460.930981851618,2.952162093335476,11.523274546290448,1.25937579,-7.7002934015,-2.667552592696427,0.0,2.9721,1.0
mp-778433,Li12Cr8P12S48,80,4,14,1819.8406161567773,2.19909843618384,22.74800770195972,2.3504749,-5.453443111749999,-0.906463165446427,0.0,1.384599999999999,0.0
mp-770632,Li6Cr2O8,16,3,31,165.25786310812856,2.749514861687902,10.328616444258037,0.90060469,-6.576617355625,-2.180159844375,0.0,1.1496,1.0
mp-759234,Li12Cu4F24,40,3,33,384.2070022529609,3.429230210570923,9.605175056324022,-1.62491347,-6.283267,-2.606958706,0.0,1.0976,0.0
mp-19970,Li12Cu4O12,28,1,136,265.3866298411937,3.31291605561265,9.478093922899776,0.62370327,-5.305655165714285,-1.78138969642857,0.0,1.178,1.0
mp-1177695,Li6Cu2S4,12,3,72,190.85870767024355,2.583988897976579,15.904892305853627,2.07066902,-4.227459449999999,-1.210343715833332,0.0,2.0335,0.0
mp-756320,Li3Fe4Sb1O8,16,4,12,166.65545205689895,4.921752503406691,10.415965753556184,3.95275048,-7.057387510624999,-1.849916090624999,1.0,1.513,1.0
mp-3887,Li24Ga8N16,48,0,206,438.1095971822336,3.594945496357451,9.127283274629868,2.13174526,-6.848640568333334,-0.70524114625,1.0,2.738699999999999,0.0
mp-1212476,Li12Gd4N24O72,112,4,14,1471.4787898760126,2.483125226446216,13.138203481035829,-0.66268288,-7.0945927751785725,-1.419740796607143,0.0,2.6228,1.0
mp-1212457,Li12Gd12Te8O48,80,0,230,981.0554838424216,6.362607824147301,12.26319354803027,2.97445161,-8.41980118375,-2.738937225416667,1.0,2.8187,1.0
mp-697047,Li6H8Rh2,16,3,63,145.21792694324432,2.921828005049107,9.07612043395277,1.02780984,-6.12639754875,-0.486797864375,0.0,0.391799999999999,0.0
mp-733455,Li12H24Rh4,40,3,62,334.60885633059564,2.576122494135507,8.36522140826489,-0.97538284,-5.689596295749999,-0.486894067999999,0.0,2.6058,0.0
mp-1029562,Li24In8N16,48,0,206,513.7247321624003,4.231908765257968,10.702598586716674,4.80926468,-8.484397328333333,-0.485028834583333,1.0,1.135999999999999,0.0
mp-1185315,Li12La12Mo8O48,80,0,230,1036.099427056756,5.265853947480374,12.951242838209447,6.18606516,-7.973626758499999,-2.89354564875,1.0,2.8495,1.0
mp-1018766,Li3La1As2,6,6,164,115.10373448224672,4.466022360263992,19.18395574704112,4.188534909999999,-12.250163341666664,-1.196836438333332,0.0,0.5023,0.0
mp-1018768,Li3La1Bi2,6,6,164,147.637297473291,6.497515313595994,24.6062162455485,4.68304549,-26.53385125,-0.8822767608333301,0.0,0.157899999999999,0.0
mp-8407,Li3La1P2,6,6,164,106.53924332283344,3.455080369296144,17.756540553805575,4.63645034,-10.314388125,-1.162879446825396,0.0,0.673999999999999,0.0
mp-8405,Li3La1Sb2,6,6,164,139.22691421574416,4.809485592304801,23.204485702624027,5.17286692,-15.761104311666664,-1.041515827499999,0.0,0.2496,0.0
mp-1211552,Li6Mn4Se8O24,42,5,2,583.0812018192734,3.63691076065106,13.882885757601748,1.51618042,-6.376457234761905,-1.7378868940589092,0.0,0.7033,1.0
mp-2251,Li3N1,4,2,191,43.49737902678387,1.329645114763006,10.874344756695969,0.3339454,-4.5547189,-0.4825014221875,0.0,0.984,0.0
mp-8406,Li3Nd1As2,6,6,164,110.79985487799354,4.719477016179242,18.46664247966559,3.24673872,-12.167217913333332,-1.168352880416667,0.0,0.0759,0.0
mp-1102490,Li3Ni2Sb1O6,12,4,12,116.62788197014795,5.068220150310588,9.718990164178996,3.87788242,-6.173020300833333,-1.9143695316666671,0.0,2.8084,1.0
mp-1211465,Li12Ni4F24,40,3,33,385.6737829529617,3.332615771544866,9.64184457382404,-2.25901361,-6.476595840250001,-2.68679543025,1.0,2.3599,0.0
mp-736,Li6P2,8,2,194,116.35462957137251,1.478420706442506,14.544328696421564,1.72650997,-4.849909675,-0.809360786994047,0.0,0.6996,0.0
mp-28336,Li12P28,40,3,19,782.9438513326726,2.016029104493912,19.57359628331681,3.49564494,-7.4435614385,-0.426096096083331,0.0,1.831999999999999,0.0
mp-985583,Li12P4S16,32,3,62,644.980015636747,1.854266986621739,20.155625488648344,1.41355318,-4.6432519840625,-1.181291934642856,0.0,2.8091,0.0
mp-7955,Li6Sb2,8,2,194,156.9780330499643,3.016532149535449,19.622254131245537,2.34408978,-8.96872171,-0.7521129675,0.0,0.4833,0.0
mp-1194339,Li12Sb4S12,28,3,33,546.0608863438224,2.904439465711608,19.50217451227937,4.66958921,-4.352543959285714,-1.170994167499999,0.0,2.4016,0.0
mp-756316,Li6Sb2S8,16,3,31,349.6906883227319,2.572246830891136,21.855668020170743,1.94498638,-4.400263315,-1.099112301249999,0.0,2.2895,0.0
mp-542435,Li24Sc8N16,48,0,206,497.4472018838932,2.504720864974737,10.363483372581108,2.71901124,-5.839127057708332,-1.049828191874998,0.0,2.401399999999999,0.0
mp-551675,Li3U1O4,8,1,139,82.92667345484787,6.464798377322667,10.365834181855984,5.60618787,-7.549800438749999,-2.948547609999998,0.0,0.378,1.0
mp-6396,Li12V8P12O48,80,4,14,936.6771724375848,2.890511681297346,11.708464655469808,2.28927328,-7.703433305,-2.727606636196428,0.0,1.8718999999999992,1.0
mp-21633,Li18V6F36,60,4,15,603.1532738433947,3.068407121584963,10.052554564056578,-0.220532899999999,-5.84102288049999,-3.21164398849999,0.0,2.4401,0.0
mp-760375,Li3V1S4,8,0,215,208.85125029945607,1.590359148201836,26.10640628743201,-1.01416826,-5.280256963750001,-1.35974284625,0.0,1.9592,0.0
mp-1029592,Li24Y8N16,48,0,206,582.7583499245023,3.139913993867486,12.140798956760465,1.56327183,-5.742184642291666,-0.9234487106249992,0.0,2.079799999999999,0.0
mp-567219,Li4Ca3Si2N6,15,4,12,170.25545925849275,2.810967930414013,11.350363950566184,4.25002498,-6.098225537333334,-1.129372628222224,0.0,2.2904,0.0
mp-1222462,Li4Co1Te1O6,12,4,5,116.25537740326614,4.432092933008556,9.687948116938845,3.32636705,-5.953437338333334,-1.986755662500001,0.0,2.3692,1.0
mp-755721,Li4Cr3Fe1O8,16,4,12,148.05588877195933,4.122778985031266,9.253493048247458,3.251877679999999,-7.583752009999999,-2.293218064583333,0.0,2.3536,1.0
mp-1222529,Li16Ge4S16,36,3,19,668.1071761214367,2.273320920330939,18.55853267003991,3.4301613,-4.484881334166666,-1.283530490648147,0.0,2.520299999999999,0.0
mp-642996,Li8H12Os2,22,6,167,195.44495101038257,3.807004415738219,8.883861409562844,-0.053787299999999,-8.060011967272727,-0.490672975378788,1.0,2.691,1.0
mp-642847,Li8H12Ru2,22,6,167,186.27493663438904,2.404791934265277,8.467042574290412,0.06934873,-5.566619457272728,-0.5027980612878791,1.0,2.388,0.0
mp-30228,Li8H2N2,12,1,88,113.93344890586192,1.246966604069204,9.494454075488491,0.13456772,-3.698390784166666,-0.470201509097221,0.0,1.9079,0.0
mp-1101935,Li4Mg1H3N3,11,3,44,94.8599608217067,1.6999774840166242,8.623632801973336,1.1316559,-4.690996172727273,-0.648587624280303,0.0,2.9272,0.0
mp-691115,Li8Mn10O24,42,4,15,397.4633364794207,4.131443210079115,9.463412773319542,1.86747551,-7.426357757619043,-2.053914901094687,0.0,1.0113,1.0
mp-768712,Li8Mn2Cr2O12,24,4,15,209.73904815865728,3.652894468503857,8.73912700661072,2.03574493,-6.921567192083334,-2.243357170522031,1.0,1.0548,1.0
mp-1192995,Li8Mn2Ge4S14,28,4,9,585.5697879043292,2.566011443617403,20.913206710868906,3.09121812,-5.043793273928571,-1.114344742411739,0.0,1.5209,0.0
mp-1192737,Li8Mn2Sn4Se14,28,4,9,734.2667463308899,3.9478522537922,26.22381236896036,2.58190278,-4.5404403589285725,-1.019852443762186,1.0,1.065,0.0
mp-19117,Li8Mo2O10,20,5,2,174.0732240356345,3.886335423261222,8.703661201781724,1.38700714,-6.584061948,-2.261947287833334,0.0,2.8472,1.0
mp-29149,Li4N1Cl1,6,6,166,74.11045541373396,1.7302952734741202,12.35174256895566,1.93683656,-5.156109395,-1.018106857986112,0.0,1.7617,0.0
mp-9159,Li4Np1O5,10,1,87,96.87126560956176,5.909792811497805,9.687126560956177,4.48858114,-7.314337584,-2.7820099667083342,0.0,0.249,1.0
mp-22170,Li8Pb2O8,18,3,63,193.8256732273988,5.122514555962003,10.76809295707771,1.04895133,-5.3791634883333295,-1.919143204259254,1.0,1.4367,1.0
mp-1181012,Li16Re24S44,84,3,56,1593.6295787292136,6.242414836076053,18.971780699157303,3.85152201,-7.106192861071428,-1.018272291825396,1.0,1.732799999999999,0.0
mp-4426,Li8Se2O10,20,4,15,190.70688849802823,3.251665605753137,9.535344424901414,1.10700767,-5.5380743495,-1.950933552567708,0.0,2.4442,1.0
mp-1195718,Li16Sn4S16,36,3,62,709.3419458485032,2.572562034958062,19.7039429402362,3.82901387,-4.406942159722223,-1.273753093981481,1.0,2.3564,0.0
mp-30129,Li16Ta4N12,32,3,73,332.0937256633453,5.014852324648111,10.37792892697954,1.59550377,-11.783405176875,-1.09279137940625,0.0,2.684,0.0
mp-4804,Li8Te2O10,20,5,2,180.3598335425996,4.333848923870652,9.01799167712998,2.43562062,-5.656125174000001,-2.104244935500001,0.0,2.7111,1.0
mp-766540,Li16Ti4S16,36,3,62,681.1415266227162,1.988244484266622,18.92059796174212,0.93943388,-5.111733531944444,-1.546775559351851,1.0,2.3658,0.0
mp-7714,Li4U1O5,10,1,87,98.449544217735,5.832405410848618,9.8449544217735,2.80570347,-7.260546774000001,-2.893856123833333,0.0,1.7311,1.0
mp-777961,Li16V4B8O24,52,3,58,494.8557212043594,2.635139833193059,9.516456177006912,3.65320018,-7.2125326686538465,-2.6151367372435903,1.0,2.9536,1.0
mp-1194891,Li8Zn2H24N12,46,3,20,439.8747140362517,1.429289371031032,9.562493783396777,1.4801319,-4.872369254565217,-0.5390171323188401,1.0,2.6176,0.0
mp-757242,Li10Au2O8,20,3,70,201.19735291641985,4.880483751867384,10.059867645820992,0.50252106,-5.066491792,-1.805457756666666,0.0,1.9587999999999992,1.0
mp-29365,Li5Bi1O5,11,4,8,121.77903034390047,4.413627443517979,11.07082094035459,1.20367137,-5.419265454545455,-1.948860575606061,0.0,1.3597,1.0
mp-29025,Li5Br2N1,8,3,71,136.08693497942187,2.544367011117343,17.010866872427734,0.87977351,-3.80505973,-1.160461586458333,0.0,2.0781,0.0
mp-23361,Li5Cr1Cl8,14,3,65,262.6307957610719,2.341459211249514,18.75934255436228,0.85490488,-7.301780744285715,-1.8570389130952392,1.0,1.7483,0.0
mp-531553,Li80Ge16N48,144,5,1,1350.456235079563,2.938581226626753,9.378168299163631,4.21692089,-4.948498914930556,-0.594890534560185,0.0,0.0014,0.0
mp-643656,Li10H18Pt4,32,1,140,290.1543308204018,4.966885908800464,9.067322838137557,1.71476092,-9.61825026125,-0.492939168880207,0.0,0.136,0.0
mp-1211142,Li15I3O18,36,6,151,316.3516938433656,4.056541683626441,8.7875470512046,4.81650942,-5.296128770833336,-1.899762689305558,0.0,2.590699999999999,1.0
mp-1202424,Li10La10Si8N24,52,1,117,686.9166202992427,4.881440065965761,13.209935005754668,5.97617479,-7.374302638076923,-1.374869756602565,0.0,2.5229,0.0
mp-1222696,Li5Mn5Se8O24,42,5,1,598.0991489901379,3.678847009310837,14.240455928336615,2.33301806,-6.552139213571428,-1.740876196073138,0.0,0.8681999999999991,1.0
mp-530177,Li10Mn14O32,56,3,58,530.0250331855946,4.231115089781728,9.464732735457046,2.24965111,-7.526056389107143,-2.067267194185139,0.0,0.871,1.0
mp-3838,Li10Re2N8,20,3,59,214.6694946407185,4.28442520188517,10.733474732035926,1.08375189,-10.903416738,-0.8175017920833321,1.0,2.8473,0.0
mp-5061,Li5Re1O6,12,4,12,102.13379178967,5.152445331878141,8.511149315805834,1.19238264,-6.614796960833334,-2.308089079930556,0.0,2.158299999999999,1.0
mp-29364,Li5Sb1O5,11,4,12,105.67097758222344,3.715820537960308,9.606452507474858,1.81824752,-5.690335399090909,-2.198206253787879,0.0,2.914,1.0
mp-559814,Li20Sb4S12I8,44,3,58,1084.0095687380117,3.103335930396204,24.63658110768208,2.51334704,-3.9195865956818174,-1.270793913333332,1.0,2.7011000000000003,0.0
mp-686208,Li80Si16N48,144,5,1,1271.3114833089276,2.190394384744106,8.828551967423108,3.69072922,-5.313381626180555,-0.8706298930324081,1.0,2.159999999999999,0.0
mp-685991,Li10Si2P6,18,4,9,305.7924268160472,1.691117772112792,16.98846815644707,2.20505528,-4.058822567777778,-0.5903389078439151,1.0,1.3160999999999992,0.0
mp-769637,Li10Ti12Fe2O32,56,4,4,600.7735932092196,3.503329790976219,10.728099878736064,1.51045367,-8.231014945535714,-3.06833766970238,0.0,2.7030000000000003,1.0
mp-686129,Li80Ti16N48,144,5,1,1399.517677654111,2.3652725820401272,9.718872761486882,2.42545318,-5.691114166319444,-0.973898656875,0.0,1.5392,0.0
mp-27483,Li40Tl8O32,80,1,137,816.3699014924835,4.931940548670556,10.204623768656043,1.7555033,-5.035327619124999,-1.864534572124999,1.0,1.6838000000000002,1.0
mp-1222482,Li6As1S5I1,13,5,1,276.79857924655875,2.422414202915209,21.29219840358144,0.74654104,-4.166239487692308,-1.217049473461538,1.0,1.5398,0.0
mp-18925,Li24Co4O16,44,1,137,386.2306222136056,2.830290317086024,8.777968686672853,1.29765815,-5.4277486775,-1.938767046590909,0.0,1.9349,1.0
mp-1029498,Li12Cr2N8,22,1,137,205.8451791991688,2.414737682679257,9.356599054507672,1.81322814,-5.7652148754545465,-0.8143334527272731,1.0,1.4398,0.0
mp-756490,Li12Mn2S8,22,1,137,369.7247538777745,2.019677160909255,16.805670630807928,1.7893990400000002,-4.757734745000004,-1.3787355848119152,1.0,1.9467999999999992,0.0
mp-8804,Li12Mo2N8,22,1,137,213.58799380942872,3.01048399265989,9.708545173155851,1.73190441,-5.918423979545454,-0.8591241350000001,0.0,2.6113,0.0
mp-1211124,Li6Ni1Cl8,15,0,225,261.2538671253076,2.440485313615477,17.416924475020505,1.36770082,-6.852261230666667,-1.8174967759999991,0.0,1.3726,0.0
mp-1029826,Li12Os2N8,22,1,137,213.25349486377024,4.483620276318826,9.69334067562592,3.75120203,-5.632015054090909,-0.538013635,0.0,0.085099999999999,1.0
mp-7941,Li6Te1O6,13,6,148,123.50966762204364,3.566080095580585,9.500743663234124,0.94502576,-5.538599096153846,-2.132090702051282,1.0,2.798,1.0
mp-8609,Li6U1O6,13,6,166,147.16214972097185,4.238976446311725,11.32016536315168,0.71275654,-6.770566743846155,-2.73728111,1.0,2.1685,1.0
mp-29250,Li6V1Cl8,15,0,225,266.6865031209936,2.342502847887874,17.779100208066236,3.18565354,-7.120857426666666,-1.945569067333334,1.0,1.5371,0.0
mp-38487,Li7Bi1O6,14,5,1,133.35067398044131,4.402726172360108,9.525048141460092,0.978412,-5.333531286428572,-1.9806555430952384,0.0,1.9268,1.0
mp-1222572,Li7Cu2N3,12,6,166,128.14913298854796,2.820915381034729,10.67909441571233,2.30425911,-5.9162293925,-0.433996983576388,0.0,0.320899999999999,0.0
mp-675941,Li14I2N4,20,4,8,274.2572752209069,2.464312289299618,13.712863761045345,3.27788367,-3.817344232,-0.661041414833333,0.0,1.91,0.0
mp-5515,Li56Mn8N32,96,0,218,846.6144045283733,2.5035441906349343,8.818900047170555,3.03644298,-5.3357357975,-0.679270269272031,0.0,0.759799999999999,0.0
mp-1211446,Li28P4Se24,56,3,33,1144.1563337884986,3.212186008251302,20.43136310336605,1.68042791,-9.088358380892858,-1.118473910108418,1.0,0.9336,0.0
mp-1029522,Li56Sb8N32,96,0,218,980.837915019784,3.065970699528783,10.217061614789417,3.44182152,-4.761742170208335,-0.524694479652778,1.0,2.245,0.0
mp-673833,Li14V2As8,24,4,15,426.4214737459603,3.109186465659751,17.76756140608168,1.35414352,-8.26002031125,-0.791133263472222,0.0,0.8996000000000001,0.0
mp-1201314,Li16Be12P14O58,100,6,159,1106.335120447771,2.372680930319642,11.06335120447771,0.74426243,-7.127516266,-2.745375387083333,1.0,0.1894,1.0
mp-560555,Li8Bi2Pd1O10,21,4,12,228.11160260225168,5.386124558640047,10.86245726677389,2.27409616,-5.544238512380953,-1.843717397460318,0.0,0.9392,1.0
mp-8610,Li8Pt1O6,15,6,148,125.27838741148403,4.594222522367486,8.351892494098935,1.77105021,-5.315978290000001,-1.913959471111112,1.0,2.1611,1.0
mp-973793,Li16Se2N4,22,1,109,243.54533907657,2.215931736573749,11.070242685298636,1.39249325,-5.447051049090909,-0.750440787263257,0.0,1.7523,0.0
mp-1190809,Li16Te2N4,22,1,109,267.24376256429514,2.623885698303365,12.147443752922506,2.16317643,-3.867219506363636,-0.677106386666666,1.0,2.171399999999999,0.0
mp-849522,Li16V6P16O58,96,4,9,1177.7104433476766,2.594702021624042,12.267817118204963,1.2861218,-7.5047829765625,-2.726913007996031,0.0,1.0229,1.0
mp-26035,Li18Mn6P16O58,98,4,15,1163.8728997755154,2.679569037812957,11.876254079341994,1.22978005,-7.354454606836734,-2.630352381855835,0.0,1.4499,1.0
mp-1223032,Li18Nd4P10S40,72,4,15,1583.7808063200805,2.4054346056634,21.99695564333445,2.05484699,-5.046743679861112,-1.253378134255952,0.0,2.6719,0.0
mp-1185329,Li1Ac1Rh2,4,0,225,74.31260409603121,9.826400036686133,18.5781510240078,5.50814824,-30.17678579,-0.352625018541669,0.0,0.2955,0.0
mp-864755,Li1Ac1Te2,4,0,225,124.46911172465488,6.5256169046388575,31.11727793116372,5.59612746,-4.49926146,-1.4200840447916652,1.0,0.5567000000000001,0.0
mp-27227,Li2Ag6O4,12,3,72,167.58077542268393,7.184823414960364,13.965064618556994,1.52379379,-4.193837251666667,-0.8048942663888881,1.0,0.727799999999999,1.0
mp-765559,Li2Ag2F8,12,4,15,140.99335413533052,4.4943327522722285,11.74944617794421,-2.81107731,-7.918943890833333,-1.8778279977777768,0.0,1.3393,0.0
mp-772290,Li4Ag4O4,12,1,139,157.26726779742015,5.524678938965225,13.105605649785014,1.346573,-4.487755839166666,-1.254481989166664,0.0,1.222799999999999,1.0
mp-996962,Li2Ag2O4,8,4,14,89.54423795505451,5.444915828347883,11.193029744381814,0.67584501,-4.76615059375,-1.104204954999999,0.0,0.6381999999999991,1.0
mp-1188124,Li2Al2P4S12,20,4,15,440.01910939744346,2.175665033927013,22.00095546987217,2.32661532,-5.079137614,-0.947577298761904,0.0,2.749,0.0
mp-5920,Li1Al1Ge1,3,0,216,52.81719212819173,3.350258717879114,17.605730709397243,4.9768912,-3.717195643333334,-0.291353459444444,0.0,0.052699999999999,0.0
mp-3161,Li1Al1Si1,3,0,216,51.550854332397535,1.997382426964561,17.183618110799177,4.89920206,-3.88454041,-0.191268167777777,0.0,0.112099999999999,0.0
mp-4586,Li2Al2Te4,8,1,122,240.8510256428608,3.986690686480764,30.1063782053576,2.55454027,-3.9104522675,-0.925174646666666,1.0,2.4411,0.0
mp-7943,Li8As8,16,4,14,287.3892010245731,3.784026537081356,17.961825064035818,3.14337844,-9.1353277975,-0.588209097083334,0.0,0.3285,0.0
mp-1197471,Li2As2Xe6F24,34,4,4,721.7031628471966,3.238335817723515,21.22656361315284,-4.86793982,-3.4353149111764703,-1.690973945931372,0.0,2.9661,0.0
mp-1203059,Li4As12H8O36,60,4,14,732.802571341703,3.423637763074154,12.213376189028384,2.07214453,-6.141165092833333,-1.6584136003888892,1.0,2.8119,1.0
mp-555874,Li2As2S4,8,4,9,158.8211673254257,3.052822489810487,19.852645915678213,2.81598696,-4.5692398225,-0.855298688958333,0.0,1.0664,0.0
mp-1078724,Li2As2Se4,8,4,9,180.1193542287808,4.421161473687972,22.5149192785976,2.42026674,-12.07441182,-0.6450723543229161,0.0,0.7504000000000001,0.0
mp-1105750,Li1Au1S4O14,20,5,2,298.17741185313315,3.097230006903312,14.908870592656658,-1.12749101,-6.1942552825,-1.643870422166666,0.0,1.983299999999999,1.0
mp-554442,Li4Au4F16,24,4,13,336.08219865224663,5.531823453075376,14.00342494384361,-2.16159184,-4.158819921666667,-2.019117527222222,0.0,2.0786,0.0
mp-1079483,Li1Au1F6,8,6,148,95.44060604754222,5.531000382967913,11.930075755942775,-2.6752591,-3.847220767499999,-1.763980877916666,0.0,1.8673,0.0
mp-29520,Li2Au2I8,12,4,14,421.080403175182,5.611829930983799,35.09003359793183,1.69050047,-2.575818849166666,-0.6960096280555541,0.0,0.751799999999999,0.0
mp-996959,Li2Au2O4,8,1,98,94.02731333947168,8.332296816138216,11.75341416743396,1.12493505,-5.00680094875,-1.237119229583332,1.0,1.5259,1.0
mp-29829,Li4Au4S4,12,3,70,227.3917677103957,6.892803084577985,18.949313975866307,2.24890037,-3.996329235833334,-0.889274424444444,1.0,1.5804,0.0
mp-1222458,Li2B24P2C2,30,3,46,239.11822622488728,2.495236260046789,7.970607540829576,7.56708557,-6.7197045583333335,-0.272653682698412,0.0,2.4016,0.0
mp-638070,Li2B26C4,32,3,44,247.21336621451712,2.304013097623002,7.72541769420366,6.99972586,-6.8640366640625,-0.164139984531249,0.0,2.7108,0.0
mp-1222413,Li4B12,16,1,127,146.8971922439705,1.78034894226488,9.181074515248154,3.63390307,-6.39197159,-0.285529338541667,1.0,0.091899999999999,0.0
mp-569450,Li2B12C2,16,3,38,118.75126324505165,2.344102479741133,7.421953952815727,4.52697635,-6.645888894375,-0.244146521354166,0.0,1.392199999999999,0.0
mp-9244,Li2B2C2,6,2,194,45.27148437558257,2.183366715678177,7.545247395930428,4.2961937,-6.3140738,-0.375080423333334,0.0,0.8471000000000001,0.0