material_id,composition,nsites,crystal_system,space_group,volume,density,density_atomic,efermi,energy_per_atom,formation_energy_per_atom,is_gap_direct,band_gap,is_oxide
mp-1542038,Cs2Sn2Se6,10,5,2,385.7905263288533,4.205213588085478,38.57905263288533,1.182901929999999,-4.047431396,-0.9688896639924572,0.0,1.189599999999999,0.0
mp-7181,Cs1Sr2Ta3O10,16,1,123,247.99605608632453,6.7693694257284704,15.499753505395285,1.43231839,-8.93906641625,-3.353239764478449,0.0,2.0452,1.0
mp-1213360,Cs2Sr2Ta12Cl36,52,6,163,1334.4537610598743,4.8389790824269,25.662572328074507,2.55902759,-6.030335502884616,-1.912037759948276,0.0,0.1436,0.0
mp-505322,Cs4Ta4Cu8Te16,32,3,33,1070.152219022284,5.904752843070441,33.442256844446376,3.39212288,-4.8753153715625,-0.6819976182693961,0.0,1.2436999999999991,0.0
mp-557186,Cs2Ta4P10O36,52,5,2,802.5239235270188,3.880307423808001,15.433152375519594,-0.13688595,-8.293626411923078,-2.878914936059083,0.0,2.9928,1.0
mp-1227943,Cs4Ta16P12S76,108,3,29,3107.569821777932,3.331911277679555,28.773794646091964,1.19407215,-6.345668372407407,-1.040077998348779,0.0,1.1991,0.0
mp-1213077,Cs2Ta2Cl12,16,4,15,483.2774314565404,3.618593425048759,30.20483946603377,-1.19301826,-5.015484689375,-2.032214450248564,0.0,2.9077,0.0
mp-865606,Cs2Ta2Ge2S10,16,5,2,445.4664906101767,4.076684651225936,27.841655663136045,1.77576986,-5.930367949375,-1.169151598686062,0.0,0.9885,0.0
mp-606510,Cs2Ta2I12,16,4,15,693.1154089816937,5.152229128458724,43.319713061355856,1.31037519,-3.76159318625,-1.021720585873563,0.0,1.1787,0.0
mp-34293,Cs2Ta2N4,8,1,122,170.93349924747253,6.64215108670938,21.366687405934066,2.32832554,-24.1279319025,-1.138485138708329,0.0,2.1446,0.0
mp-553976,Cs8Ta8P8S48,72,4,14,2069.557218091545,3.4483510341942543,28.74385025127146,1.67384288,-5.881407944583334,-1.101348384209038,0.0,1.7818,0.0
mp-1225870,Cs2Ta2S6,10,2,186,288.4055194292077,4.721832478530271,28.84055194292077,1.9667131,-6.47222654599999,-1.434229782897691,1.0,0.515099999999999,0.0
mp-685607,Cs4Ta4Se12,20,3,62,636.3777257598773,5.748247783542349,31.818886287993863,2.11222056,-24.502386345,-1.175393063904167,1.0,0.0868,0.0
mp-1194848,Cs4Ta4V8O32,48,4,11,870.2200722610227,4.150156859132491,18.129584838771304,-0.92210673,-8.585326799375,-2.708126358290709,0.0,2.7305,1.0
mp-1213369,Cs2Tb2Nb12Br36,52,6,163,1606.5578035846584,4.728807546758417,30.895342376628044,2.11124014,-5.194053325384615,-1.516410669089302,1.0,0.9606999999999992,0.0
mp-542164,Cs2Tb4Ag6Se10,22,3,63,597.9218406731621,6.493949448241059,27.178265485143733,2.588600259999999,-4.624738395909091,-1.334549737700659,1.0,1.094399999999999,0.0
mp-1190323,Cs2Tb4Ag6Te10,22,3,63,709.1414950190591,6.61442101790833,32.233704319048144,3.81357149,-4.204004398636363,-1.074091006029257,0.0,1.061999999999999,0.0
mp-6182,Cs2Tb4Cu6Se10,22,3,63,526.5063986546859,6.536068219527576,23.93210902975845,3.64422836,-4.958438803181818,-1.325631329064296,0.0,1.1974,0.0
mp-11121,Cs2Tb2Cd2Se6,12,3,63,397.7919199779892,5.352586339927888,33.14932666483243,1.28756918,-4.417005759166667,-1.5847414563921811,1.0,2.0647,0.0
mp-12495,Cs2Tb2Cd2Te6,12,3,63,472.31548815364334,5.534070729762184,39.359624012803614,2.60117428,-3.946204015833333,-1.290242505220305,1.0,1.5409000000000002,0.0
mp-1213063,Cs2Tb2Mn2Se6,12,3,63,384.10931787406895,5.046332730575608,32.00910982283908,2.55273865,-5.766697735,-1.567432581880687,0.0,0.5118,0.0
mp-972199,Cs2Tb2S4,8,2,194,234.41280833800576,5.043127309672519,29.30160104225072,2.23455581,-20.22375449125,-2.122533162656246,0.0,2.205399999999999,0.0
mp-1194142,Cs4Tb4Si4S16,28,3,19,769.5651928288504,3.868232425084627,27.484471172458942,2.00392851,-5.656763663928571,-1.724678307688833,1.0,2.8852,0.0
mp-573710,Cs2Tb2Zn2Se6,12,3,63,374.8336719492575,5.263983548570613,31.236139329104788,1.43795101,-4.529650590833333,-1.647430718058847,1.0,2.1028,0.0
mp-638078,Cs2Tb2Zn2Te6,12,3,63,452.8847838995925,5.426832808612629,37.74039865829938,2.7955736,-4.014943753333333,-1.309026672720305,1.0,1.3573,0.0
mp-1198737,Cs4Tc12Se16Br8,40,4,14,1201.4703291084652,4.989637214551083,30.03675822771163,1.6273749400000002,-5.8557565325,-0.9310131939030172,0.0,1.0219,0.0
mp-8361,Cs4Te4,8,3,55,368.1405515606796,4.700155721594678,46.01756894508495,2.49696058,-26.3272990225,-1.0644603675,0.0,1.0019,0.0
mp-1178386,Cs4Te16,20,4,14,848.7392180552357,5.034450214681592,42.43696090276178,3.658263159999999,-25.833951325,-0.478481277,1.0,0.514899999999999,0.0
mp-1541909,Cs2Te2Au2,6,3,51,273.4661949036073,5.555715307690348,45.57769915060121,3.00944215,-3.151942528333333,-0.710220707107279,1.0,1.416,0.0
mp-9462,Cs4Te4Se12,20,4,14,727.4769215782544,4.54132880117545,36.37384607891272,2.47617568,-3.6579640715,-0.7501604921706181,0.0,0.9842,0.0
mp-645687,Cs4Ti4P8S32,48,4,9,1389.5271117478085,2.386444932470962,28.94848149474601,1.23868643,-5.431984787916666,-1.036877023106184,0.0,1.3678,0.0
mp-505663,Cs2Ti4Cl14,20,4,11,543.8793499577276,2.911536842885058,27.193967497886383,2.1252944,-11.3412391815,-1.936135250583333,0.0,0.288699999999999,0.0
mp-561121,Cs1Ti3P5O19,28,4,8,417.00355048535687,2.928273438990003,14.892983945905602,0.29745967,-8.20911411142857,-3.00614695635248,1.0,2.7906,1.0
mp-570706,Cs2Ti2Cu6Se8,18,4,11,456.54175469362247,4.999350934217608,25.36343081631236,3.00016367,-4.850279422777778,-0.951975477484833,0.0,1.251199999999999,0.0
mp-1213568,Cs4Tl12O20,36,3,62,627.0941293724466,8.749513906369733,17.419281371456847,3.29597276,-4.838310966388885,-1.198066639128351,0.0,0.3555,1.0
mp-573702,Cs4Tl4Br16,24,3,19,946.147884959302,4.611608907679591,39.42282853997092,0.84677633,-2.978804989166666,-1.340932351331418,0.0,1.9724,0.0
mp-1078203,Cs2Tl2F6,10,0,225,218.4270368523224,5.994898166816377,21.84270368523224,0.17906462,-19.952638002,-2.419469716,0.0,2.1858,0.0
mp-1541564,Cs4Tl4F16,24,3,57,474.2571071745681,5.788181151019173,19.760712798940336,-1.77584852,-17.511111560416666,-2.379133330416664,0.0,2.7921,0.0
mp-1205877,Cs2Tl2O2,6,4,12,171.9528395775273,6.823368307708186,28.65880659625455,2.76724631,-3.899410228333332,-1.156939997662837,0.0,1.3911,1.0
mp-1213394,Cs8Tl8S16,32,4,15,1079.594909208038,4.939419509376841,33.737340912751186,1.33519138,-3.783347896875,-0.8943056913721281,1.0,1.269,0.0
mp-1213326,Cs2Tm2Nb12Br36,52,6,163,1566.2330964004495,4.871779870770983,30.119867238470185,2.29080179,-5.182120941923078,-1.510453752679045,1.0,0.9403999999999992,0.0
mp-581749,Cs2Tm4Cu6Se10,22,3,63,520.9672118952229,6.733172590713464,23.680327813419225,3.73957468,-4.915040620454546,-1.310480808761267,0.0,1.247299999999999,0.0
mp-12496,Cs2Tm2Cd2Te6,12,3,63,463.6210342632151,5.709550103772549,38.63508618860126,2.77154438,-3.893490884166667,-1.263423064109196,1.0,1.548,0.0
mp-1213648,Cs2Tm2Mn2Se6,12,3,63,374.4274681767017,5.265595600109138,31.202289014725142,2.6628047,-5.7298775683333325,-1.556506105769576,0.0,0.5038,0.0
mp-1078990,Cs2Tm2S4,8,2,194,224.91870856091785,5.403791660227766,28.11483857011473,2.30369061,-21.18685517125,-2.111980307656249,0.0,2.223999999999999,0.0
mp-1194326,Cs4Tm4Si4S16,28,3,19,769.1998643845887,3.956497635007328,27.471423728021023,1.95317093,-5.617885335357143,-1.707994571022168,0.0,2.9693,0.0
mp-505713,Cs2Tm2Zn2Se6,12,3,63,367.5362700386693,5.458940116207776,30.62802250322244,1.50341032,-4.495123065833334,-1.638796883614405,1.0,2.171599999999999,0.0
mp-1103187,Cs2Tm2Zn2Te6,12,3,63,436.08143297518114,5.712167548334439,36.340119414598426,4.19063841,-3.969711644999999,-1.289688254942528,1.0,1.383899999999999,0.0
mp-1225971,Cs2U4F18,24,4,9,411.6839083582128,6.291893335005728,17.1534961815922,3.04308587,-7.191287241666667,-3.798331494554597,0.0,0.1779,0.0
mp-2747986,Cs2U4O12,18,3,74,350.05340305759387,6.68819708845892,19.44741128097744,3.5561569200000003,-27.84579852333333,-3.311726471111111,1.0,0.3349,1.0
mp-556690,Cs2U12F50,64,2,194,975.923424977672,6.928663050071132,15.248803515276125,3.90703487,-7.55618477828125,-3.915473934364223,1.0,0.077999999999999,0.0
mp-572944,Cs4U4Cr4O24,36,4,14,656.9076701869105,5.246998115567218,18.247435282969736,2.17478309,-8.507948980277778,-2.781259971350574,0.0,0.6384999999999991,1.0
mp-7489,Cs1U1F6,8,6,148,151.43079517596294,5.317521726299572,18.928849396995368,0.62491769,-6.757856422499994,-3.7975436937068894,0.0,0.9396999999999992,0.0
mp-541096,Cs4U4Nb4O24,36,4,14,712.8163873651455,5.21666707744993,19.800455204587376,1.22722595,-9.011841602777778,-3.235346197183908,0.0,2.1589,1.0
mp-572741,Cs4U4P12O44,64,4,14,1041.9899470684566,4.078712443451091,16.281092922944634,0.50375686,-8.0929409615625,-2.913354760848983,0.0,2.3621,1.0
mp-1225841,Cs2U2Sb2O12,18,3,74,322.3637932467339,6.0648498917077,17.909099624818552,4.00607062,-7.894036658888889,-2.781130564406129,0.0,1.6823,1.0
mp-1197456,Cs8U8Te48,64,3,62,2488.3249158415124,6.067566808348292,38.88007681002363,4.66654879,-4.7432470753125,-0.8608442077693941,0.0,0.0423,0.0
mp-562513,Cs4U4V4O24,36,4,14,680.1870050221011,5.057121738840128,18.89408347283614,0.71220262,-8.673560177222221,-3.010109101628352,0.0,1.946,1.0
mp-1200557,Cs4V4N8O32,48,3,19,842.1066976693083,2.680626683021438,17.543889534777257,0.25189572,-7.011453705,-1.490443107471263,1.0,1.7603,1.0
mp-572728,Cs2V4I6O26,38,3,46,615.977733462926,4.439913933935637,16.20994035428753,1.59874351,-6.1325446705263165,-1.502475164192378,1.0,1.829699999999999,1.0
mp-504996,Cs2V4P10O32,48,4,7,678.3268903976644,3.16108112775943,14.131810216618009,2.06255635,-7.924793926875,-2.70310503449456,0.0,0.0091,1.0
mp-1196047,Cs4V8Sb4O32,48,4,14,847.4342486443637,3.797834060825847,17.65488018009091,-0.22718276,-7.482809274375,-2.250436025179598,0.0,2.7044,1.0
mp-18545,Cs2V6Se4O24,36,2,173,550.5519547634085,3.834368810422881,15.293109854539123,0.5045906,-7.240607193611112,-1.989104371630149,0.0,2.3398,1.0
mp-651814,Cs2V6O16,24,4,11,353.5944502204158,3.885845929633331,14.733102092517326,-0.17807994,-8.020532600416667,-2.375250615387931,0.0,2.070599999999999,1.0
mp-23038,Cs2V2Br6,10,2,194,326.19875647830327,4.312316786436811,32.61987564783033,2.74989171,-4.563302533000001,-1.582757883931035,0.0,0.6528,0.0
mp-22977,Cs2V2Cl6,10,2,194,281.0246095963259,3.42958092661,28.102460959632587,3.49793119,-13.44505887,-1.913989785499998,0.0,0.483499999999999,0.0
mp-1228886,Cs2V2Fe2F12,18,3,74,303.85829826298664,3.865639989012002,16.881016570165926,0.40015783,-6.341845835,-3.014621490517241,1.0,1.814,0.0
mp-22991,Cs2V2I6,10,2,194,407.9054999130535,4.596528051662015,40.79054999130536,3.602657439999999,-4.053066899000001,-1.140282601931036,0.0,0.597299999999999,0.0
mp-1029293,Cs2V2N4,8,0,227,145.22549879139612,4.844912139002631,18.153187348924515,3.03880376,-15.31549751,-0.9516149918749992,0.0,0.5028,0.0
mp-1228899,Cs2V2Ni2F12,18,3,74,291.61976382353697,4.060309672391199,16.201097990196498,0.389465499999999,-5.964710351666668,-2.936362066072798,0.0,2.3655,0.0
mp-562901,Cs4V4P8O28,44,4,14,656.0138472933266,3.622635304012956,14.90940562030288,1.84795286,-7.772078218636364,-2.73039115263099,0.0,1.8855,1.0
mp-1198694,Cs4V4P4O20,32,3,19,587.2548065307553,3.334541163477139,18.351712704086104,0.36650771,-7.671410117187499,-2.653014843349753,1.0,2.8884,1.0
mp-1181965,Cs8V8S8O48,72,3,61,1300.304173864268,3.186552893940551,18.05978019255928,-0.78226283,-7.08262691375,-2.21395922065613,1.0,2.141,1.0
mp-1225864,Cs2V2Te2O12,18,3,74,263.6180129369864,5.132999795564999,14.645445163165911,3.89615076,-6.729615426111112,-1.971509252369094,0.0,1.7666,1.0
mp-1225824,Cs2V2Zn2F12,18,3,74,302.1591874635917,3.992496770166296,16.786621525755095,-0.11365676,-5.5585013127777785,-3.032418923850575,0.0,2.296599999999999,0.0
mp-1226055,Cs4W12Br28,44,6,159,1440.8859841898743,5.733420183859311,32.74740873158806,0.94984893,-5.736964686136363,-1.078692503832287,0.0,2.7127,0.0
mp-1213572,Cs4W12Cl28,44,6,159,1379.533438713882,4.490250974115556,31.35303269804277,1.33140066,-6.156081802272727,-1.3631574513322882,1.0,2.9160999999999992,0.0
mp-1213375,Cs2Y2Nb12Br36,52,6,163,1602.2225711695792,4.596466538460527,30.811972522491907,2.16788932,-5.264105971730769,-1.514493012486737,1.0,0.9779,0.0
mp-669309,Cs1Y10C4I18,33,5,2,1168.7650689530528,4.765649747682933,35.41712330160766,3.766747709999999,-5.394668255757575,-1.444796085747126,0.0,0.217,0.0
mp-1199735,Cs6Y12Cu6Te24,48,4,12,1705.6601659348337,5.167562990039006,35.534586790309035,3.68603937,-5.136573425624999,-1.311749573915229,0.0,0.687299999999999,0.0
mp-11116,Cs2Y2Cd2Se6,12,3,63,396.23847645686567,4.786701643970068,33.01987303807214,1.38048581,-4.7247607175,-1.580625101947736,1.0,2.085499999999999,0.0
mp-11123,Cs2Y2Hg2Se6,12,3,63,395.6168674457141,5.534457439856658,32.96807228714284,1.55705454,-4.4916549025,-1.455908979031071,1.0,1.3946,0.0
mp-1213646,Cs2Y2Mn2Se6,12,3,63,381.4115500922992,4.472342780774713,31.784295841024928,2.61956053,-6.076142688333333,-1.565006222436242,0.0,0.5245000000000001,0.0
mp-541044,Cs2Y2O4,8,2,194,147.8654114591104,5.700610921022929,18.4831764323888,2.37184468,-7.26273716,-2.934489389913794,0.0,2.8461,1.0
mp-574620,Cs2Y2Zn2Se6,12,3,63,374.1151862218172,4.652519107341447,31.176265518484765,1.559183749999999,-4.8390025075,-1.644911321947737,1.0,2.1117,0.0
mp-1103744,Cs2Y2Zn2Te6,12,3,63,451.159835658839,4.932153967541584,37.59665297156992,2.86641245,-4.326730928333333,-1.308942534942528,1.0,1.4051,0.0
mp-1213115,Cs2Yb2Mn2Se6,12,3,63,366.099646127448,5.42262004178134,30.508303843954,2.11758656,-21.569522715,-1.693548189445043,0.0,1.2409,0.0
mp-1101093,Cs1Zn4P3,8,1,123,171.48789654608754,4.720163557299252,21.435987068260943,3.30909213,-11.36700594375,-0.397369399241069,1.0,0.1202,0.0
mp-1225874,Cs2Zn2Co2F12,18,3,74,292.6498649195276,4.212920528342598,16.258325828862645,-1.81734835,-4.828291933333334,-2.51893058329502,1.0,1.6216,0.0
mp-1225833,Cs2Zn2Fe2F12,18,3,74,282.19780358813057,4.332615176676145,15.677655754896143,-1.71003971,-5.233905842777777,-2.776032882739463,1.0,2.2145,0.0
mp-571410,Cs2Zr12B2I28,44,3,64,1601.133070626066,5.118563316434741,36.38938796877423,3.40652962,-4.938892611818182,-1.292994896764629,0.0,0.8390999999999991,0.0
mp-1213455,Cs4Zr24C4Cl60,92,3,51,2677.860940447186,3.036141823053018,29.107184135295498,1.59653484,-6.082261499130435,-2.20613154944153,0.0,1.1421,0.0
mp-582176,Cs2Zr12C2I28,44,3,64,1607.6658456416858,5.100242267198717,36.53786012822013,3.96902597,-5.037727288863636,-1.275953495552508,0.0,0.071899999999999,0.0
mp-1213469,Cs2Zr12Mn2Cl28,44,3,64,1176.2681395501618,3.47710317488453,26.733366807958223,2.61988085,-6.02645572,-2.061192272617555,0.0,1.234,0.0
mp-570192,Cs2Zr12Mn2I28,44,3,64,1658.37496254546,5.030255854481192,37.690340057851365,3.41320928,-4.970783271590909,-1.212039032844827,0.0,0.5971000000000001,0.0
mp-7152,Cs2Zr2Cu2Se6,12,3,63,330.8119260063073,5.266102894134232,27.56766050052561,3.41984656,-5.362389176666666,-1.355285959447736,1.0,0.2984,0.0
mp-556582,Cu2I4O12,18,4,11,256.7608623166428,5.346500569506531,14.264492350924598,3.59679234,-4.922429120555553,-0.829651572777775,1.0,0.4999,1.0
mp-28888,Cu2Pt4S8,14,4,10,250.6207121711608,7.711976830434304,17.901479440797196,5.5234862,-21.280624204285715,-0.428877614464287,0.0,0.1401,0.0
mp-768451,Cu4S6O24,34,6,148,408.3851043510847,3.377147325515586,12.011326598561316,0.54720112,-6.167490957058824,-1.462254245147059,0.0,0.1135,1.0
mp-15252,Cu4Ge2S6,12,4,9,218.7939056805521,4.491883289283199,18.232825473379343,5.10895678,-4.778898242499999,-0.5728115929166641,0.0,0.111099999999999,0.0
mp-1203834,Cu4H20N8O34,66,4,15,685.2302189976849,2.254608235005848,10.382276045419468,-0.49098999,-5.858583649696969,-1.021658625681818,0.0,1.0384,1.0
mp-2932665,Cu4Hg4S2F12,22,5,2,337.8824553223064,6.628027029062678,15.3582934237412,1.09105791,-3.807844454090909,-1.5860961602272732,0.0,0.4967,0.0
mp-23353,Cu2Hg1I4,7,1,121,233.48895157130423,5.9405298354886265,33.35556451018632,2.55977603,-2.531063238571428,-0.444758118928572,1.0,0.5589000000000001,0.0
mp-361,Cu4O2,6,0,224,76.5869082712687,6.20494716806907,12.764484711878117,4.17791244,-5.02663022,-0.6445054383333331,1.0,0.512699999999999,1.0
mp-760432,Cu4O6,10,3,43,97.66062516736574,5.954172764725702,9.766062516736572,3.11928098,-5.46033676925,-0.851877498249999,0.0,0.136,1.0
mp-28034,Cu8P28,36,4,12,637.0008602196015,3.586012262146381,17.694468339433374,5.9919008,-9.551364844444445,-0.139350823981481,0.0,0.8419999999999991,0.0
mp-683899,Cu8P32Se12Br8,60,3,57,1529.6354201546435,3.350399108563484,25.49392366924406,3.09083574,-4.692795065333333,-0.340539795611605,0.0,1.5045000000000002,0.0
mp-570817,Cu8P32Se12I8,60,3,57,1686.9751917777085,3.408027639531118,28.11625319629514,2.50895328,-4.616166584500001,-0.278969170778273,0.0,1.411699999999999,0.0
mp-29396,Cu4Pb2O4,10,4,15,149.8239050378739,8.119401012574201,14.982390503787393,5.06329905,-5.34244191,-0.981045425999998,0.0,0.629,1.0
mp-1106310,Cu4Si2Hg2S8,16,3,31,307.65878399004623,5.224921990751516,19.22867399937789,4.40947888,-4.443386090624999,-0.6325308809374991,1.0,0.401099999999999,0.0
mp-1212937,Cu4Si2Hg2Se8,16,3,31,370.67953828618073,6.017221756171246,23.167471142886296,3.32948281,-4.002321478125,-0.5126903133593751,1.0,0.0161,0.0
mp-15896,Cu4Si2Se6,12,4,9,247.9726555194205,5.250795042218217,20.664387959951707,4.35708324,-4.5357676,-0.5171899661718741,0.0,0.238699999999999,0.0
mp-675120,Cu4Si2Te6,12,4,9,311.4248558081254,5.737067154666678,25.952071317343783,5.45107964,-17.896011221666665,-0.109506300833333,0.0,0.267099999999999,0.0
mp-1025340,Cu2W1Se4,7,1,121,173.33187043550686,6.004547168596251,24.76169577650098,2.21600756,-19.01609805428572,-0.400722725178574,0.0,1.275699999999999,0.0
mp-643793,Cu6H4O4F8,22,4,14,230.1462826026637,4.338413888568141,10.46119466375744,1.39166512,-4.860984746818182,-1.530140710681818,1.0,0.3217,1.0
mp-1194777,Cu6Hg4Te12O32,54,1,90,905.005457405235,5.920688448138194,16.759360322319168,3.76324714,-5.373652886666666,-1.264609348703703,0.0,0.215199999999999,1.0
mp-557905,Cu12Mo32Br8O92,144,3,57,2130.6007284396765,4.63246190853835,14.795838391942198,2.62219763,-7.742388443124999,-1.73850463548611,0.0,0.019299999999999,1.0
mp-679930,Cu12P60I8,80,4,14,1788.4100505522883,3.376224896618584,22.355125631903604,4.51220237,-4.9517338705,-0.122846464482142,0.0,1.012,0.0
mp-565597,Cu18P24S24I18,84,2,185,2257.0591752912483,3.635167371976242,26.86975208680057,3.18487789,-4.377074272023809,-0.442432112993196,1.0,1.626,0.0
mp-680446,Cu36P48Se48Br36,168,4,4,4275.137708685938,4.055476979465903,25.447248265987728,2.51970785,-4.239086009226191,-0.463800321579506,1.0,1.3783,0.0
mp-559558,Cu12P32S24Cl12,80,3,62,1959.53398833034,2.498780575791424,24.49417485412925,3.22286352,-4.84527252175,-0.545412820857142,0.0,1.872599999999999,0.0
mp-1200788,Cu12P32Se24Br12,80,3,62,2105.5080413302685,3.63385002133697,26.31885051662836,2.23456442,-4.478388995125,-0.403003160935266,0.0,1.364599999999999,0.0
mp-3934,Cu6P2S8,16,3,31,273.49698499786626,4.248498235589031,17.09356156236664,5.41957682,-9.572404965625,-0.362097385528272,0.0,1.0202,0.0
mp-28995,Cu8Si2P16,26,1,88,421.329328713269,4.178131484329747,16.204974181279574,6.44996917,-9.723779190384615,-0.17165926029304,0.0,1.2078,0.0
mp-34126,Cu4Sn1P10,15,6,160,269.5060797975346,4.205977371486426,17.967071986502308,6.13030123,-10.711879308,-0.16827058131746,0.0,0.241699999999999,0.0
mp-1225822,Cu10Se2Cl10O8,30,4,4,574.7060861803676,3.686563411846573,19.156869539345585,1.72064099,-4.504474581666667,-0.9693743918229172,0.0,0.067699999999999,1.0
mp-28717,Cu12As8S18,38,5,1,720.7573019066266,4.467443702232592,18.96729741859544,4.90636587,-10.586249103421054,-0.2585705934375,0.0,0.3558,0.0
mp-557225,Cu12Ge2W2S16,32,2,186,617.8851845520105,4.806654282864693,19.30891201725033,4.27481677,-5.3460972846875,-0.6408926193749991,1.0,0.8154,0.0
mp-1190563,Cu6Hg3Sb4S12,25,6,146,556.725417138744,5.532489377147434,22.26901668554976,4.8144933,-4.1193626516,-0.4513396155,1.0,0.186099999999999,0.0
mp-1202008,Cu2Ag4N8O24,38,5,2,514.1224217111187,3.406214294183453,13.529537413450493,0.2695067,-6.141723583421053,-0.7462643693859651,0.0,0.144799999999999,1.0