material_id,composition,nsites,crystal_system,space_group,volume,density,density_atomic,efermi,energy_per_atom,formation_energy_per_atom,is_gap_direct,band_gap,is_oxide
mp-771905,Mn6P18O54,78,4,9,989.654714167511,2.9382057028280912,12.687880950865525,1.1223889,-7.893644835641026,-2.513638303860996,0.0,1.3101999999999991,1.0
mp-18971,Mn1Pt3O6,10,3,65,114.63192782000768,10.664274565314468,11.46319278200077,4.96911339,-6.895280270999999,-1.188962142793101,0.0,0.073399999999999,1.0
mp-22576,Mn6Sb12O36,54,6,150,637.5161382173872,6.164615858177724,11.805854411433096,5.13601829,-7.213290068333334,-1.97909186810345,0.0,0.512,1.0
mp-1210700,Mn2Sb4Se8,14,4,12,382.0950618933744,5.339330465061909,27.29250442095531,4.36097026,-18.115815240714287,-0.495499946533249,0.0,0.3928,0.0
mp-28669,Mn2Se4O12,18,4,14,248.858487577255,4.121739039793437,13.825471532069722,0.39565042,-6.521447505555555,-1.427935919179836,0.0,1.5967,1.0
mp-28525,Mn15Br6O20,41,0,225,557.5237931852873,4.835410503977954,13.59814129720213,1.92183149,-7.833111293414642,-1.827961813145508,0.0,0.170699999999999,1.0
mp-768472,Mn8S12O48,68,4,14,811.9094366829172,3.25652399384988,11.939844657101723,0.7064660700000001,-7.181558557941177,-1.880697302256591,0.0,0.6835,1.0
mp-28943,Mn8B4O16,28,4,14,285.67116868791186,4.294114021467051,10.202541738853997,3.61528101,-8.758228763571427,-2.358904995718389,1.0,0.5381,1.0
mp-1221942,Mn2Bi3Sb3O14,22,6,166,296.4240191410443,7.428623409162617,13.47381905186565,7.30555863,-6.985884530000001,-1.910766743448276,1.0,1.741699999999999,1.0
mp-504697,Mn8Bi4O20,32,3,55,370.1075747703095,7.158046439938833,11.565861711572172,4.23014289,-7.7546197721875,-1.885386032295258,0.0,0.416199999999999,1.0
mp-1221996,Mn4Co2O8,14,1,141,151.7646126556744,5.094533182027652,10.840329475405314,3.21342297,-8.302297824285715,-1.838113349408867,0.0,0.6991,1.0
mp-1222018,Mn2Cr3Fe1O8,14,6,166,160.00958678237947,4.666920621074745,11.42925619874139,3.20196413,-9.022415877857142,-2.212638574704433,0.0,1.7368,1.0
mp-1193329,Mn4Cr2Pb4O18,28,5,2,364.1017331319365,6.569763526701929,13.003633326140587,2.70466445,-7.463013458928517,-1.753440513275807,0.0,1.386099999999999,1.0
mp-20223,Mn8Ge4O16,28,3,62,340.7937677956049,4.8046138325185765,12.171205992700177,2.8120628,-8.220307286785713,-2.114749792623151,1.0,1.0831,1.0
mp-24250,Mn4H4S2O12,22,4,15,212.74436607756013,3.74582840799705,9.670198458070915,2.13343458,-7.208841391818182,-1.850615113714733,0.0,2.7417,1.0
mp-1221883,Mn2In1Ag1Te4,8,1,121,267.1449043199302,5.23974738645677,33.39311303999128,3.71040906,-4.96101203125,-0.398591333857758,0.0,0.0293,0.0
mp-1222032,Mn4In2Sb2O12,20,5,1,259.1892627319183,5.669265122616022,12.959463136595916,4.69897646,-7.513153205499999,-2.023156045752873,0.0,0.486299999999999,1.0
mp-18302,Mn4Mo2P24,30,4,15,432.888968508543,4.430528056054093,14.4296322836181,8.64445358,-6.628800968666667,-0.351776768771755,0.0,0.1193,0.0
mp-27807,Mn8O8F36,52,4,15,643.7735026321409,3.227949654591492,12.38025966600271,-3.1043031,-5.471142501923077,-1.975402196604774,0.0,0.613499999999999,1.0
mp-1172875,Mn32O48,80,3,61,889.1007007723838,4.717691499808666,11.113758759654797,3.43251628,-8.647502563375,-2.013919843547413,1.0,0.0721,1.0
mp-18721,Mn2P2O7,11,4,12,125.22138674368266,3.763679967633767,11.38376243124388,3.4008564,-8.380768164090908,-2.5816131941043423,0.0,2.2949,1.0
mp-1192820,Mn4Sb6I6O10,26,5,2,624.586534655181,4.976229227324467,24.02255902519927,2.9231701,-6.154581764615385,-1.537437366604774,0.0,2.017899999999999,1.0
mp-18928,Mn8Si4O16,28,3,62,324.0014486422718,4.140242289153002,11.571480308652564,3.61428526,-8.814470905714286,-2.594300529408867,1.0,1.988499999999999,1.0
mp-5056,Mn8Si4S16,28,3,62,559.7138450819633,3.15926686074833,19.98978018149869,4.70376317,-11.022951640714286,-0.98289017288793,0.0,0.3536,0.0
mp-18607,Mn4Te6O16,26,4,15,405.5074267121467,5.083255480268348,15.59643948892872,3.68655421,-6.9143807673076925,-1.7345625900663122,0.0,2.1851,1.0
mp-1210598,Mn4Te2O12,18,1,136,192.58400823969285,5.750675794349236,10.699111568871825,4.03992174,-7.469453084999994,-1.785552806392076,0.0,0.5941999999999991,1.0
mp-19142,Mn2V2O7,11,4,12,136.27935633163042,3.944894203488449,12.389032393784584,1.60123642,-8.786227804545454,-2.32008509916928,1.0,1.204,1.0
mp-1199415,Mn16V8H8O40,72,3,62,874.8774349296987,3.671881269003745,12.151075485134704,3.57488249,-8.268920564861112,-2.09748632954023,0.0,1.541799999999999,1.0
mp-18751,Mn4Zn2O8,14,1,141,151.3335365601834,5.25115930992759,10.809538325727386,2.90165842,-7.607413516428571,-1.982325200123152,0.0,0.728699999999999,1.0
mp-19185,Mn6B4O12,22,3,58,229.127310559627,4.093708924535419,10.414877752710318,3.41515292,-8.848231846818182,-2.4361777151933133,1.0,2.0333,1.0
mp-504423,Mn6Co4O16,26,3,31,255.4384001367044,5.339393644039572,9.824553851411707,2.94309733,-7.946916402307693,-1.690257374907162,0.0,0.8285,1.0
mp-558631,Mn6P4O16,26,4,14,310.7749492482777,3.791088213118403,11.952882663395297,2.56757946,-8.54329887,-2.550938795621448,0.0,2.9497,1.0
mp-542161,Mn6Ag4P8O28,46,5,2,570.4981704910543,4.240498786856391,12.402134141109878,2.55615357,-7.709210031086956,-2.313328752639036,0.0,1.7732,1.0
mp-18870,Mn3Cd2O8,13,4,12,146.56131453997776,5.8647608105981615,11.273947272305982,1.79799136,-7.051648147692309,-1.744743971061009,0.0,1.214799999999999,1.0
mp-24178,Mn6H4Se6O20,36,5,2,535.5373773832061,3.495750543054909,14.876038260644616,2.6867622,-6.8304307627777785,-1.594668360740243,0.0,0.181599999999999,1.0
mp-31908,Mn6Nb12O22,40,6,164,497.0086128960751,6.002198869456395,12.425215322401876,4.76700897,-9.576838796249998,-2.450766437689654,0.0,0.240599999999999,1.0
mp-18759,Mn6O8,14,1,141,155.5144237875321,4.886374081713801,11.108173127680866,3.2345749,-8.804393511428572,-2.050409240541872,0.0,0.8134999999999991,1.0
mp-1202942,Mn6P6Pb2O24,38,3,74,496.81946512818007,4.391353606248485,13.074196450741582,3.59702664,-8.109508914473684,-2.48736967330114,0.0,0.8563000000000001,1.0
mp-1193915,Mn6Sb4I8O8,26,3,64,746.6707601916463,4.358667047814938,28.718106161217165,2.42225467,-6.191563339230769,-1.450644659522546,0.0,1.6919,1.0
mp-1196009,Mn6Sb10I6O18,40,5,2,837.3456849674865,5.149401690385787,20.933642124187163,4.41676036,-6.522327738749993,-1.660590790439648,0.0,0.7864000000000001,1.0
mp-554429,Mn12Si4O16F8,40,3,62,503.414915356313,3.89089048667272,12.585372883907825,2.29080622,-8.374279545250001,-2.721188277629312,1.0,2.6069,1.0
mp-18795,Mn6Te2O12,20,6,148,241.80205818153007,5.33470121881512,12.090102909076505,3.96112076,-7.951964359,-1.920252579045977,0.0,0.7581999999999991,1.0
mp-17899,Mn6V4O16,26,3,64,303.38857642765294,4.320545284020368,11.668791401063574,2.15501215,-8.837571938461538,-2.280837626445622,1.0,1.8537999999999992,1.0
mp-1403705,Mn3Zn2O8,13,4,12,132.46367924277024,5.310510348711602,10.189513787905405,2.02563974,-7.176852596923078,-1.823835586445624,0.0,1.229899999999999,1.0
mp-559323,Mn4Bi3N1O15,23,6,143,292.27859474623426,6.25341907157125,12.707764988966709,4.40218194,-7.337576988695652,-1.647322340074963,1.0,1.123899999999999,1.0
mp-31901,Mn8Nb4O18,30,6,165,348.8992460447404,5.231109530547419,11.629974868158012,3.5382286,-9.300369227,-2.541547874114944,0.0,0.015499999999999,1.0
mp-680339,Mn16Si28,44,1,116,510.61957031234266,5.415903421974765,11.604990234371424,9.77242132,-11.205978175909092,-0.28327900617555,0.0,0.755599999999999,0.0
mp-1222033,Mn8Zn6Ni4O24,42,4,15,454.8133214866442,5.296619666082868,10.828888606824862,3.16661878,-7.094650248809524,-1.791645609844006,0.0,0.3174,1.0
mp-16185,Mn12Ag2P14O48,76,4,11,936.696979443538,3.681308044047892,12.324960255836029,5.00167858,-8.147277098421052,-2.503213723993497,0.0,2.309199999999999,1.0
mp-1197400,Mn28Pb12O60,100,3,36,1258.9494393404163,6.574665637949677,12.589494393404165,4.33066631,-7.8144884029,-1.834829869720689,0.0,0.160199999999999,1.0
mp-653429,Mn14Fe2Cl6O20,42,0,225,594.6376962754468,3.947310314456254,14.158040387510638,1.97178991,-7.980887661190477,-1.9032996476436792,0.0,0.9382,1.0
mp-1172871,Mn28Ge4O48,80,1,142,901.4768289980244,4.783353083663155,11.268460362475306,3.26321591,-8.458824425,-2.052191077025861,0.0,0.5022000000000001,1.0
mp-3224,Mn28Si4O48,80,1,142,876.8759400705213,4.580059544277464,10.960949250881516,3.66410553,-8.683616215250002,-2.236868358525862,0.0,0.3909,1.0
mp-25773,Mn16Cl6O20,42,1,139,564.1271281329477,4.155459517099879,13.431598288879709,2.05883541,-8.043707264285743,-1.933166274449946,0.0,0.454499999999999,1.0
mp-1211361,Mn2Ag4Ge2Se8,16,3,31,420.7279540140976,5.203132791166355,26.2954971258811,1.95618959,-4.672913405,-0.491092853204921,1.0,0.0088,0.0
mp-996995,Mn1Ag1O2,4,4,12,50.02428543740265,6.466486922597943,12.506071359350663,2.75576796,-6.906668847500001,-1.431450102399425,0.0,0.289499999999999,1.0
mp-755882,Mn2Al4O8,14,0,227,137.169769855266,4.186127644323647,9.797840703947571,5.39059045,-8.25418014642857,-3.047750007561575,1.0,2.6578,1.0
mp-1210817,Mn4Al4Si4O20,32,3,58,380.1794153094489,3.319547243728507,11.88060672842028,2.79650546,-8.320165787812499,-2.936076515678879,0.0,1.7544,1.0
mp-29108,Mn2As4F24,30,1,122,421.8739401493608,3.406791828736739,14.06246467164536,-1.92598309,-5.309964559333334,-2.545398635528736,0.0,2.7681,0.0
mp-24550,Mn4As4H8O20,36,4,15,403.8105128125571,3.485026701768867,11.216958689237696,0.43869081,-6.703176932777778,-1.66292407421456,0.0,2.2527,1.0
mp-695994,Mn8As8H24O40,80,4,4,903.125717162663,3.131314473108335,11.289071464533288,2.80017047,-6.50106107375,-1.625316857168104,0.0,2.1119,1.0
mp-19882,Mn4B4Pb4O16,28,3,62,362.89575246259017,6.167204367485452,12.96056258794965,4.128469649999999,-7.837574336428572,-2.216731743156814,0.0,0.910899999999999,1.0
mp-1095372,Mn1Bi4S7,12,4,12,296.4700776028812,6.246915555688482,24.7058398002401,5.06148837,-25.946748490833333,-0.535296554930856,0.0,0.421799999999999,0.0
mp-554839,Mn4Bi4As4O20,32,5,2,466.3865579668446,5.964968448436672,14.574579936463891,3.54848991,-7.1796273509375,-1.87188020599138,0.0,1.9431999999999992,1.0
mp-560153,Mn4Bi4P4O20,32,4,14,447.5448643561382,5.563850451201418,13.985777011129318,3.51231277,-7.7494456753125,-2.3485296562592373,0.0,2.779,1.0
mp-558130,Mn4Bi4S8Cl4,20,3,62,458.31845752226354,5.268025673251268,22.91592287611318,4.77803921,-5.5734460760000015,-0.937983768586207,0.0,0.8539999999999991,0.0
mp-28306,Mn1Br2,3,6,164,84.15411109132559,4.237394852087011,28.051370363775195,0.48199909,-5.314335840000001,-1.169033052643679,0.0,1.5962,0.0
mp-1221733,Mn1Cd4Te5,10,1,82,345.37810859986405,5.493405850792727,34.53781085998641,2.8002762,-22.799138815,-0.580198116448278,1.0,0.5243,0.0
mp-1221646,Mn1Cd1Se2,4,6,156,109.18521570947996,4.946841501099655,27.296303927369987,2.05256773,-5.002262762499999,-0.723800653154632,1.0,0.2055,0.0
mp-1221650,Mn1Cd1Te2,4,6,160,134.83605473224907,5.203795069281301,33.70901368306227,2.99262948,-21.999529325,-0.5938365786206921,0.0,0.3984,0.0
mp-28233,Mn1Cl2,3,6,166,71.61195211117794,2.918073685479806,23.870650703725985,0.90501671,-10.579209736666668,-1.58313891316092,0.0,1.792599999999999,0.0
mp-28226,Mn2Cr4O8,14,0,227,151.07905148966802,4.9004860965885175,10.791360820690572,3.54060299,-9.23133015,-2.337050971133004,1.0,2.2026,1.0
mp-1221753,Mn1Cr4Cd1Se8,14,0,216,313.9316057148115,5.32659068272671,22.423686122486536,3.74491063,-6.287045775714285,-0.8083666911915011,0.0,0.546899999999999,0.0
mp-20474,Mn2Cu4Ge2S8,16,3,31,308.1701518196673,4.126748134059976,19.26063448872921,4.87580437,-5.467074093125,-0.6499622484913791,0.0,0.2648,0.0
mp-1210824,Mn2Cu4Si2Se8,16,3,31,353.863375850466,4.9361973539553805,22.11646099065413,3.77859493,-5.16433249125,-0.5681584196632531,0.0,0.4495,0.0
mp-510589,Mn1Cu1O2,4,4,12,45.97085781258352,5.435675009466814,11.49271445314588,3.72212939,-7.329014053750001,-1.539728060732759,0.0,0.178699999999999,1.0
mp-556585,Mn4F8,12,3,60,153.74209755521997,4.015086403850772,12.811841462934998,0.95215133,-7.296873797500001,-2.966967116810346,1.0,2.3648,0.0
mp-556560,Mn2F6,8,4,15,114.00641645002692,3.2606856333644583,14.250802056253368,-1.64994819,-6.490724162499999,-2.764831058232758,0.0,0.4936,0.0
mp-541103,Mn8F32,40,1,88,470.4465202723201,3.697204650692276,11.761163006808005,-2.93513043,-5.760018024500001,-2.396533066086208,0.0,1.3254,0.0
mp-1221879,Mn4Fe4Bi4O20,32,3,55,390.9003228390218,6.7927069630717085,12.21563508871943,4.24732536,-7.537358584375,-1.7546241047413802,0.0,0.373199999999999,1.0
mp-1221609,Mn1Ga1Cu2Se4,8,1,82,179.27696545028607,5.257286806398516,22.40962068128576,3.12153024,-4.9315712575,-0.6350499368507531,0.0,0.0344,0.0
mp-20798,Mn2Ge2O6,10,6,148,104.25051788767348,5.593280875660874,10.425051788767346,3.4436629,-7.861668011000001,-2.135882778586207,0.0,1.6731999999999991,1.0
mp-731052,Mn4H8Se8O32,52,4,14,706.241100217721,3.224664079266638,13.58155961957156,-0.08406981,-6.117498749615384,-1.307663429239887,0.0,2.2486,1.0
mp-643412,Mn4H8Se4O20,36,4,15,437.9099335266078,3.274906535971129,12.16416482018355,1.08229312,-6.367722451944444,-1.4579374883638652,0.0,1.9027,1.0
mp-1221677,Mn1H6N2Cl2,11,4,5,131.5167280966388,2.018972372817719,11.956066190603526,1.36154969,-5.322223433636363,-0.7852547959482761,0.0,1.5529000000000002,0.0
mp-735521,Mn4H24O12F12,52,4,14,490.7046257951267,2.246685735848503,9.436627419137052,-2.07337152,-5.600926979999999,-1.7456612827254632,0.0,1.5208,1.0
mp-28013,Mn1I2,3,6,164,107.54303416765336,4.767267673406124,35.84767805588446,2.432867019999999,-4.776394523333333,-0.7063810159770101,0.0,1.170799999999999,0.0
mp-19455,Mn2Mo2O8,12,4,13,134.7190612798825,5.297088616763617,11.22658843999021,3.30876953,-8.717003820833318,-2.083752250488489,0.0,1.409699999999999,1.0
mp-22100,Mn4Nb8O24,36,3,60,427.02070033983415,5.23798391062398,11.86168612055095,2.65455859,-9.433050544444454,-2.8716737219923463,1.0,1.924,1.0
mp-1232659,Mn4O4,8,3,59,85.90561003874181,5.4848291586156375,10.738201254842728,4.23508976,-9.087557915,-2.032569766465519,0.0,1.310499999999998,1.0
mp-644514,Mn6O12,18,4,12,173.18380507009397,5.001461680242682,9.62132250389411,2.60980021,-8.17517369138889,-1.8225279240325687,0.0,0.540999999999999,1.0
mp-734805,Mn4P8H4O28,44,4,14,486.301239333836,3.139948227243748,11.052300893950816,0.87139645,-7.626491573636364,-2.351595590315159,1.0,1.6962000000000002,1.0
mp-569522,Mn6P24,30,5,2,433.09111836081127,4.1140442471047685,14.436370612027044,8.46668331,-6.524260506666667,-0.359478627967159,0.0,0.4786,0.0
mp-776341,Mn1P6W3O24,34,6,146,499.0745190276605,3.913782696494203,14.678662324342955,1.48577974,-8.348307775294117,-2.48712215017024,0.0,1.1303,1.0
mp-23895,Mn4P4H8O20,36,4,15,372.8785532836693,2.99127424255955,10.357737591213034,1.03324859,-7.210947936944444,-2.087878301397099,0.0,2.4307,1.0
mp-2767267,Mn2P2O8,12,4,15,130.8739800907194,3.804124037517398,10.906165007559949,3.30844737,-8.171940343333334,-2.443718203762317,1.0,0.9867,1.0
mp-8613,Mn2P2S6,10,4,12,216.04569066551983,2.799365878447004,21.604569066551985,3.35115802,-6.104991248,-0.706477744014777,0.0,0.1562,0.0
mp-557668,Mn1Pt1F6,8,6,148,104.59808409535148,5.778852669829131,13.074760511918932,-0.96247226,-5.53735791125,-2.1978250534913792,0.0,1.8416,0.0
mp-22554,Mn2S2O8,12,3,63,143.83980720371432,3.486412766796632,11.986650600309526,1.890521479999999,-7.559578279999999,-2.044208466738505,0.0,2.8118,1.0
mp-687227,Mn2Sb4Pb10O22,38,3,63,600.8554781161805,8.348641974567956,15.811986266215277,5.2510594600000005,-6.496180135789475,-1.737715705417423,1.0,1.4424,1.0
mp-17901,Mn4Se8O20,32,3,60,454.1519890246688,4.283123314005665,14.1922496570209,2.02317214,-6.608361348437507,-1.496655939389823,1.0,2.0513999999999992,1.0
mp-1210646,Mn2Si2Ag4Se8,16,3,31,406.1322916041314,5.025787114694572,25.383268225258213,2.9396660800000003,-4.8297105375000005,-0.54760371382992,1.0,0.6252,0.0
mp-22213,Mn1Sn1B2O6,10,6,148,104.97284143368032,4.607470885864951,10.49728414336803,3.71530891,-8.120794296000001,-2.498980624126437,0.0,2.5711,1.0
mp-20096,Mn1Sn1F6,8,6,148,114.06150969980315,4.187520471349239,14.257688712475394,-0.28536453,-5.9900690725,-2.908231397866379,1.0,2.4058,0.0
mp-20569,Mn2Sn2O6,10,6,148,120.55503457779892,6.105962311348783,12.055503457779894,4.7488373,-7.686987345000001,-2.083893312586208,0.0,0.877599999999999,1.0
mp-569859,Mn1Tl2Sn1Te4,8,1,121,267.4634299766943,6.784708514106891,33.432928747086784,4.80078653,-4.25150735875,-0.440537989533047,0.0,0.309899999999999,0.0
mp-570300,Mn4Tl4Cl12,20,3,62,505.0186013250548,4.8095376856776415,25.250930066252742,2.20571276,-4.855961184,-1.440138022252875,0.0,1.9323,0.0
mp-1221565,Mn1Tl1Cu1Se2,5,1,119,115.9452369588034,6.885717689145439,23.18904739176068,4.5684329,-5.062766907999999,-0.5378635011903741,0.0,0.0054,0.0
mp-998762,Mn1Tl1F3,5,0,221,75.96225372325314,6.914697373767144,15.192450744650628,2.19544397,-6.051000195999995,-2.5959912892528703,0.0,2.6304,0.0
mp-1102938,Mn2Tl2F8,12,4,15,179.17766370804404,6.215100426239491,14.931471975670336,-0.06712782,-5.781287984166667,-2.5831384993773963,0.0,1.917,0.0
mp-2490654,Mn2V4O12,18,4,12,254.34244461182925,3.30116544079935,14.130135811768293,0.44326615,-8.668876509444445,-2.333588346992338,0.0,1.8524,1.0
mp-558892,Mn2V2Bi2O10,16,5,2,237.7521241291062,5.515621660942782,14.859507758069135,2.79476395,-8.0052481475,-2.14577806036638,0.0,1.9709,1.0
mp-19407,Mn2W2O8,12,4,13,137.541915912545,7.310800981675956,11.461826326045417,2.88556506,-9.201901063333324,-2.216569472988496,0.0,2.356299999999999,1.0
mp-1221557,Mn1Zn1Cr4S8,14,0,216,256.8295635828423,3.781374149579564,18.34496882734588,4.38889377,-6.882845065,-1.015643256280787,0.0,0.3357,0.0
mp-1221561,Mn1Zn3Cr8Se16,28,6,160,600.3912768669758,5.339285514242404,21.44254560239199,3.34795195,-6.064123776071428,-0.846259150193964,0.0,0.141,0.0
mp-1221515,Mn1Zn4Se5,10,4,8,232.76114492580007,5.075006797480443,23.27611449258001,1.98372752,-4.053949695,-0.885894982964978,1.0,0.6608,0.0
mp-1386276,Mn1Zn1F6,8,6,148,92.31441317316067,4.215230327491404,11.539301646645084,-3.24426404,-5.28599879375,-2.547889649741379,0.0,2.3517,0.0
mp-1221500,Mn1Zn1Se2,4,6,160,96.83275527166224,4.77186978593662,24.208188817915563,2.4994425700000003,-5.13051345,-0.7771179856546341,1.0,0.2439,0.0
mp-1080460,Mo2Br4O4,10,4,9,232.401256492548,4.111981233668229,23.2401256492548,-0.43835549,-6.195724719999999,-1.392631681999999,0.0,1.4684,1.0
mp-1198436,Mo4N8O32,44,4,14,600.485498539166,2.786881575611531,13.647397694071952,0.85862772,-7.253507509318183,-1.152971723863637,0.0,2.8207,1.0
mp-504210,Mo2P10O30,42,4,11,585.1094226665211,2.7857772471709312,13.931176730155263,-0.43278164,-7.817342558333334,-2.477226710153062,0.0,0.1494,1.0
mp-542135,Mo8N4Cl28,40,5,2,1091.6554929527683,2.762705099577288,27.291387323819208,0.37551052,-5.53225502875,-1.23531727225,0.0,0.079299999999999,0.0
mp-504196,Mo4P4O22,30,4,11,412.8127646591547,3.457908752087234,13.760425488638491,-0.03767864,-8.061174874333334,-2.264520319285714,0.0,2.0302,1.0
mp-556276,Mo8P8Pb4O48,68,4,14,976.7601942212748,4.44066318714105,14.364120503254044,0.98009535,-7.872354253235294,-2.248211523781512,0.0,2.7571,1.0
mp-32108,Mo4P6O22,32,4,5,449.3760406003244,3.405466730101977,14.043001268760136,1.85661087,-8.2309318,-2.458101059308036,0.0,1.1251,1.0
mp-585184,Mo8P12O52,72,4,4,1175.727509956516,2.783988052807456,16.329548749396057,0.45043761,-8.051628745416668,-2.370450197579366,0.0,0.8492000000000001,1.0
mp-1204412,Mo4Pb2Se4O22,32,5,2,507.6305729621811,4.795472302455827,15.86345540506816,1.23466724,-7.08199435375,-1.6555355224804682,0.0,2.476,1.0
mp-1221499,Mo4Ru2Se8,14,5,2,304.74342940019244,6.6345619352328224,21.76738781429946,4.8032497,-19.93014407142857,-0.6708962001785731,0.0,0.631699999999999,0.0
mp-28037,Mo12S6Br12,30,3,63,723.6296345434791,5.2836712429028765,24.12098781811597,3.53117954,-6.831108958666664,-1.010398387166663,1.0,0.987499999999999,0.0
mp-640341,Mo12S28Cl16,56,4,14,1407.4656461457091,3.086787999208474,25.13331510974481,1.87524128,-6.058655893035714,-1.137253142857141,0.0,1.6862,0.0
mp-26744,Mo8P14O48,70,5,2,989.3945150481304,3.304856717979113,14.134207357830435,2.77595005,-8.187663277428571,-2.472178156357142,0.0,0.893999999999999,1.0