material_id,composition,nsites,crystal_system,space_group,volume,density,density_atomic,efermi,energy_per_atom,formation_energy_per_atom,is_gap_direct,band_gap,is_oxide
mp-1105392,Ce6Bi8Pt6,20,0,220,509.2733464638077,12.00894796486293,25.463667323190386,7.43917879,-6.017038161499999,-0.858599480499999,0.0,0.2042,0.0
mp-580802,Ce12C4Cl20,36,4,15,959.0693226281592,4.222026274393593,26.64081451744887,5.43095476,-6.129544903333335,-2.098186114166665,1.0,0.209399999999999,0.0
mp-558375,Ce6Cu2Si2S14,24,2,173,521.8013055823599,4.68714142398412,21.74172106593166,7.174637,-6.497134664583334,-1.805143724374999,0.0,0.0071,0.0
mp-1188608,Ce6Sb8Pt6,20,0,220,475.2763822284672,10.430087103206226,23.76381911142336,7.91174835,-36.170512402,-1.189482412000001,0.0,0.2721,0.0
mp-669378,Ce6Si4S16Br2,28,4,15,671.211266530767,4.022350868441884,23.9718309475274,5.82390234,-6.3044996300000005,-1.775549005357139,0.0,0.0883,0.0
mp-542133,Ce6Si4S16Cl2,28,4,15,665.3805625544144,3.835732692492674,23.76359151980052,5.90847489,-6.349384106071429,-1.805319462499999,0.0,0.1024,0.0
mp-555409,Ce6Si4S16I2,28,4,15,686.0308896361659,4.162989592960993,24.50110320129164,6.02814648,-6.246499280000001,-1.7256153639285712,0.0,0.1101,0.0
mp-866605,Ce6Si2Ag2S14,24,2,173,533.4971992288469,4.860295438228026,22.22904996786862,6.90846231,-6.34063535,-1.753333492430554,0.0,0.019699999999999,0.0
mp-1204612,Ce16C4I24N4,48,1,136,1908.75657519076,4.690497021135507,39.76576198314083,4.05812347,-5.729876163541667,-1.524974629583332,1.0,0.008099999999999,0.0
mp-1105809,Ce8Se6N4,18,4,15,437.5592837926943,6.264468644009998,24.308849099594127,6.27661859,-7.63226705333336,-1.975368230781275,0.0,0.0143,0.0
mp-676287,Ce6Th4O19,29,4,8,428.8859740886821,8.025505051363549,14.789171520299382,7.97170812,-9.72439899862069,-4.231695849827586,0.0,0.102799999999999,1.0
mp-560230,Ce2Ag12N18O54,86,6,167,1196.0469034666874,3.735703466442723,13.907522133333574,2.32633662,-6.306249043023255,-0.919411303953487,0.0,2.2186,1.0
mp-1193745,Ce4As4O16F4,28,3,62,426.283974990484,4.643819334603983,15.224427678231573,1.08075612,-7.4595801264285715,-2.843470298214286,1.0,1.495499999999999,1.0
mp-10478,Ce4As4Rh4,12,3,62,241.8795648354988,8.730906041855526,20.156630402958232,7.61417223,-24.486315644166663,-1.2581861849999991,0.0,0.025599999999999,0.0
mp-20882,Ce4B4O12,20,3,62,240.9429887520787,5.483837776597158,12.047149437603936,7.33696603,-8.904444915000001,-3.412399983833333,0.0,0.058699999999999,1.0
mp-1213954,Ce4Bi4Rh4,12,3,62,301.57189098795646,9.955394856842291,25.13099091566304,7.85292499,-38.6639563775,-0.837579332499998,0.0,0.0144,0.0
mp-20288,Ce6C6O18F6,36,2,190,437.9495521681103,4.98499615169875,12.165265338003064,6.26977621,-8.359847035277777,-3.039288576527778,1.0,0.079899999999999,1.0
mp-582011,Ce2Cl6,8,2,176,209.62628175437192,3.904866918546096,26.20328521929649,4.26701309,-14.89158872125,-2.567102358125,0.0,0.011099999999999,0.0
mp-1226908,Ce2Cu2Ge2H2,8,6,164,123.66738021524988,7.44713744440942,15.458422526906237,6.45619208,-5.120990853749999,-0.6074031453124981,1.0,0.2008,0.0
mp-2038579,Ce6F18,24,3,63,319.6498739297401,6.143800902812646,13.318744747072506,5.90035713,-14.44414449625,-4.389466343749999,0.0,0.9484,0.0
mp-542001,Ce6F24,30,4,15,454.4772832450901,4.737642139028645,15.149242774836337,-1.09848172,-6.776128403333333,-4.057656529333332,0.0,2.1473,0.0
mp-1213799,Ce2Hf4F22,28,3,72,424.0765615640454,5.529524298203056,15.145591484430192,2.7843624,-7.575950097857143,-4.2256855225,1.0,0.1023,0.0
mp-1213837,Ce2Hf2F14,18,4,4,299.71607118276165,5.00400823959966,16.65089284348676,2.49288224,-7.518774543333325,-4.264207262777769,1.0,0.3565,0.0
mp-1545417,Ce2I6,8,4,11,324.406392393713,5.331939213390109,40.55079904921413,3.85200549,-4.345401381249999,-1.718154452499998,0.0,0.7358999999999991,0.0
mp-1213931,Ce4Mg4B20O40,68,4,14,647.322370768195,3.883469806799888,9.519446628944044,6.23193339,-8.398317617205882,-3.078082982549019,0.0,0.289999999999999,1.0
mp-1076951,Ce2Ni2Ge2,6,2,194,114.76753101443228,7.855049757033581,19.127921835738714,7.504866,-6.191436849166664,-0.7447320474999951,0.0,0.056799999999999,0.0
mp-20194,Ce1O2,3,0,225,40.85964149792201,6.994759103664203,13.619880499307335,5.05743538,-9.204800156666666,-3.9271761966666654,0.0,1.8647,1.0
mp-22524,Ce4P8O28,40,0,205,688.3913277772904,3.030298353210552,17.20978319443226,-0.31677658,-8.2495002705,-3.109137874928571,0.0,1.3714,1.0
mp-504897,Ce2P10O28,40,5,1,564.6583157524486,3.052396748289921,14.116457893811216,3.46756052,-7.92574784425,-2.811459265910714,0.0,0.677099999999999,1.0
mp-561261,Ce8P8S32,48,1,142,1196.0681591028383,3.324773563080348,24.9180866479758,4.89771628,-6.009529874791667,-1.358552930565475,0.0,0.223899999999999,0.0
mp-2109,Ce2Pt4,6,0,227,116.8998232478053,15.06516047550048,19.483303874634217,8.61170492,-45.75931511,-1.153960923333329,0.0,0.0089,0.0
mp-16097,Ce1Sc3B4O12,20,6,155,222.0437755917983,3.815649100505056,11.102188779589913,5.51685817,-8.9940093165,-3.442636500083332,0.0,0.2621,1.0
mp-29466,Ce4Si12N20,36,3,19,422.5256386074877,4.628099407672499,11.736823294652435,9.1025792,-12.9125643625,-1.489711484583334,0.0,0.118999999999999,0.0
mp-22225,Ce3Si3B3O15,24,6,144,272.0996165515161,4.741962507938011,11.337484022979837,7.34877735,-8.71473921,-3.367056123020832,0.0,0.157499999999999,1.0
mp-1198476,Ce8Sn24Ru8,40,0,223,950.1751990343956,8.351020351726445,23.75437997585989,8.80269001,-5.9675536195,-0.519540024499998,0.0,0.0053,0.0
mp-1214015,Ce4Tl4P16O48,72,4,14,1054.096346585079,4.161284352752651,14.640227035903871,5.4021189,-7.743493314027778,-2.779835083578043,0.0,0.346899999999999,1.0
mp-1194799,Ce4Tl4P8S24,40,4,14,994.8805459207922,3.998035522346367,24.87201364801981,4.97407927,-5.478539975749999,-1.081587331511904,0.0,0.2887,0.0
mp-638100,Ce4Tl8P8S28,48,4,14,1261.4639118551263,4.398139549191063,26.280498163648463,4.64131721,-5.224757877291666,-1.018144700079364,0.0,0.232899999999999,0.0
mp-1213886,Ce8Tl8F40,56,4,14,890.6016523350283,6.5555009716053,15.903600934554078,0.38938229,-6.073828768392859,-3.519873931011908,0.0,1.511,0.0
mp-1195336,Ce4Tl4P8S28,44,4,14,1123.2183505911603,3.730840492019441,25.52768978616273,4.83419522,-5.422547159318181,-1.049102976601731,0.0,0.278299999999999,0.0
mp-1213767,Ce2Zr4F22,28,3,72,451.7154968459966,3.908006820773246,16.13269631592845,2.25684616,-7.27196011,-4.123051020357143,0.0,0.3153,0.0
mp-22724,Ce2Zr2F14,18,4,4,305.28717344653137,3.96336495800752,16.9603985248073,2.73952557,-7.274741918333329,-4.176784459999995,0.0,0.029399999999999,0.0
mp-619575,Cl8F24,32,4,14,491.74309619014207,2.497464466586691,15.36697175594194,-2.01036124,-4.5009239428125,-0.6182932559375001,0.0,2.5175,0.0
mp-23207,Cl8O16,24,3,61,377.6857587257459,2.372477043145755,15.736906613572748,0.01771906,-4.267691487916667,-0.352869884583334,0.0,0.9646,1.0
mp-22869,Cl4O12,16,4,9,227.7169375298868,2.434144412054772,14.232308595617924,-1.20368262,-4.51232245,-0.33921599625,0.0,1.2103,1.0
mp-19292,Co1As2O6,9,6,162,88.7446207531823,5.702735875585171,9.860513417020256,3.57067867,-6.749632407222222,-1.620584872222222,0.0,2.065699999999999,1.0
mp-572672,Co4I8O24,36,4,4,520.5734612969454,5.215220181999961,14.460373924915151,2.87426105,-5.399268551111111,-0.969356553333333,0.0,2.0717,1.0
mp-30006,Co4N8O24,36,6,148,399.0469430279408,3.045095274788639,11.08463730633169,0.09311048,-6.86529878,-0.921105642222222,0.0,1.8283,1.0
mp-773130,Co4N16O48,68,5,2,1063.5942125904803,1.9169232087418864,15.641091361624714,-2.34424922,-6.634130915735295,-0.7598921063235301,0.0,0.043099999999999,1.0
mp-19238,Co4Pt12O24,40,3,65,447.803159486937,10.978935086425206,11.195078987173426,5.08872813,-6.524561416,-1.021103145,0.0,0.1366,1.0
mp-2956,Co8Ge12S12,32,6,148,511.41964622012506,5.610437373228489,15.981863944378908,6.49819001,-5.6713202821875,-0.602445818749998,0.0,0.5427999999999991,0.0
mp-5094,Co8Ge12Se12,32,6,148,569.419771832191,6.680027352503196,17.79436786975597,5.43052908,-5.351588404999999,-0.523631975253906,1.0,0.3737,0.0
mp-2994,Co8Ge12Te12,32,6,148,660.8919404501713,7.222002268687246,20.652873139067854,6.54426693,-18.2008918421875,-0.158883350937497,1.0,0.4535,0.0
mp-570152,Co8Sn12Se12,32,6,148,664.379653810537,7.10700883356796,20.76186418157928,6.35987646,-5.139998559999999,-0.542088130253905,1.0,0.3384,0.0
mp-866481,Co8Sn12Te12,32,6,148,761.5971113744109,7.472422657430012,23.79990973045034,7.13259547,-4.887602568750001,-0.421919233125001,1.0,0.4171,0.0
mp-757299,Co21Cu3O32,56,6,160,540.2485316694,5.963559551620097,9.647295208382143,3.54223865,-7.012630321428571,-1.290592405535713,0.0,0.017,1.0
mp-1202958,Co8As4H4O20,36,3,58,448.9409773468795,4.050811838212693,12.470582704079986,1.2144719,-6.737043048888889,-1.506828889305556,0.0,1.9439,1.0
mp-550468,Co4P4O14,22,4,14,234.02360752382376,4.141132898834099,10.637436705628351,2.65144599,-7.680990056590908,-2.250671190616882,0.0,2.0784,1.0
mp-622183,Co8P4Cl4O16,32,4,15,427.8820126741196,3.854300777868896,13.371312896066236,1.9364329,-7.1243641590625,-1.959027435892856,0.0,2.6302000000000003,1.0
mp-505217,Co8P4H4O20,36,3,58,414.337756567037,3.684595463319983,11.50938212686214,2.0064205,-7.233208552222223,-1.920177615654762,0.0,2.4941,1.0
mp-18855,Co4Te6O16,26,4,15,374.2818961219498,5.578240041435182,14.395457543151917,3.92919049,-6.342220546923078,-1.474494457692308,0.0,2.4813,1.0
mp-562111,Co12As8O32,52,4,14,577.3842654927694,5.2300984309539285,11.10354356716864,2.69620229,-6.961698386153846,-1.552145827307693,0.0,1.958699999999999,1.0
mp-19264,Co6P4O16,26,4,14,314.3452565077092,3.874656409549819,12.090202173373427,1.7121188200000002,-7.680226294230769,-2.156004351868131,1.0,2.9001,1.0
mp-645717,Co18Te6O36,60,4,15,650.2282886795527,6.13513610629714,10.837138144659212,3.95306859,-6.840789082000001,-1.417656873666668,0.0,1.0654,1.0
mp-1195181,Co16Se12Cl8O36,72,3,62,1162.0046666373848,3.9299078879051423,16.138953703297013,3.64068711,-6.143612037916666,-1.296382262473958,1.0,2.4618,1.0
mp-562833,Co10Se8Br4O24,46,5,2,724.2707740347321,4.412570688278876,15.745016826842004,1.50177443,-6.142836128913044,-1.260220709755435,1.0,2.528,1.0
mp-562327,Co10Te8Cl8O22,48,5,2,837.1620164247685,4.454506411834842,17.440875342182675,2.18627786,-5.984770301458333,-1.398851575277777,0.0,1.8011,1.0
mp-562912,Co24Te12Cl8O48,92,1,135,1295.541318238014,5.123335844250451,14.081970850413198,3.80870817,-6.433659105217389,-1.420483641739128,0.0,2.2763,1.0
mp-685142,Co14Sb4O24,42,4,15,470.5462272839195,5.985435840606801,11.203481601998083,4.2958851,-7.127300873809523,-1.528850798571428,0.0,0.8058999999999991,1.0
mp-639164,Co14Te8Br12O24,58,4,15,1101.910065364146,4.805254362403309,18.998449402830104,1.77705235,-5.808060095862069,-1.266530720574711,0.0,2.2401,1.0
mp-1203045,Co18Te10Pb12O60,100,2,182,1331.8027635441722,7.210651515887124,13.31802763544172,4.85919092,-6.497971774600001,-1.4853319242666672,0.0,1.3596,1.0
mp-562172,Co4Ag4N12O36,56,4,14,687.9943961937893,3.40621907570151,12.285614217746238,-0.23220107,-6.528953015892869,-0.848750396011916,0.0,2.480299999999999,1.0
mp-19178,Co2Ag2O4,8,2,194,87.12125219781167,7.578299942146375,10.89015652472646,2.79283801,-5.97368530125,-1.005616199166666,0.0,1.331999999999999,1.0
mp-2715,Co4As8,12,4,14,183.7683897798177,7.546049905466102,15.31403248165148,6.28072553,-14.506548740833331,-0.290117705833334,0.0,0.172299999999999,0.0
mp-505511,Co8As8Se8,24,3,61,382.505170858071,7.391006615784446,15.937715452419624,5.90182087,-14.465206302916668,-0.380765520104167,0.0,0.3947,0.0
mp-997158,Co2Au2O4,8,2,194,87.71762486577444,10.900131267155912,10.964703108221803,4.20024895,-6.0296507275,-0.953845545,0.0,0.5255000000000001,1.0
mp-1195268,Co8Bi16S8O56,88,3,61,1216.432621357821,6.7812696081045605,13.82309796997524,3.62232905,-6.628550653409092,-1.747862295,0.0,2.244799999999999,1.0
mp-1190466,Co2Bi12S4O32,50,4,5,755.9878826019867,7.173538294349684,15.119757652039734,3.83037522,-6.492191243799999,-1.775482531999999,0.0,2.350099999999999,1.0
mp-1105091,Co4Bi4As4O20,32,5,2,445.7162305849643,6.3011335933828985,13.928632205780136,3.14120881,-6.707611891875,-1.6534395684375,0.0,2.0761,1.0
mp-30033,Co1Br2,3,6,164,77.81513086815478,4.667836392740899,25.938376956051595,0.88435531,-4.136869076666667,-0.6677658133333331,0.0,0.1072,0.0
mp-23240,Co1Cl2,3,6,166,64.59071594564031,3.337988324124591,21.53023864854677,1.92073856,-9.455805333333332,-0.942769024999999,0.0,0.0843,0.0
mp-555908,Co2F4,6,1,136,68.98126085349506,4.666660251169866,11.496876808915845,0.52860275,-5.99539223,-2.341685073333334,1.0,2.2721,0.0
mp-1271079,Co4F12,16,1,140,226.68760093708207,3.396809423561567,14.167975058567633,-3.01188664,-5.369672344375,-2.150928883125,1.0,1.6435,0.0
mp-510271,Co4H48Br8O24,84,4,12,926.2951355221888,2.34361052487118,11.02732304193082,-1.08282205,-5.055130411071429,-1.205745978452381,1.0,2.852999999999999,1.0
mp-1192030,Co4H8Cl8O4,24,3,62,364.2988306578852,2.6957883061634123,15.179117944078548,0.72789907,-4.943372117916667,-1.181906084166666,0.0,0.8128000000000001,1.0
mp-643547,Co4H8S4O20,36,4,15,367.9105160556862,3.123494833167299,10.219736557102394,1.62207587,-6.3632681825,-1.607499939166666,1.0,1.172,1.0
mp-23853,Co1H4Cl2O2,9,4,12,113.5811398014526,2.424990703794188,12.620126644605843,-0.27965428,-5.045305585555556,-1.233406687222222,0.0,2.573,1.0
mp-22408,Co2O2,4,0,216,45.6458388279094,5.451909946417111,11.41145970697735,2.80576017,-7.312520008750001,-1.2718311462500012,1.0,0.5880000000000001,1.0
mp-1400906,Co4O8,12,1,87,124.5865170211454,4.847912397318181,10.382209751762115,0.85252144,-6.748878903333335,-1.072432660000001,1.0,0.5904,1.0
mp-14285,Co4P8,12,4,14,154.83268856077132,5.185653188975327,12.902724046730944,8.23318112,-10.9190834575,-0.506288872817461,0.0,0.437799999999999,0.0
mp-24536,Co2P4H16O20,42,4,14,388.14344602880624,2.472246993234041,9.241510619733482,0.32989704,-6.274830032380953,-1.769815492823129,1.0,2.448,1.0
mp-2761326,Co4P4O16,24,4,10,247.48119681791871,4.130649644696764,10.311716534079949,4.06159546,-7.510814523333335,-2.120692145773811,0.0,0.483499999999999,1.0
mp-1226003,Co4P4S4,12,0,198,157.60762281838188,5.140340194371183,13.13396856819849,7.60642037,-10.672168665,-0.5817331569295641,0.0,1.1231,0.0
mp-10368,Co8P8Se8,24,3,61,357.49698733383923,6.2749659793806,14.895707805576636,6.7950874,-5.960383141250001,-0.6121159002455361,0.0,0.6371,0.0
mp-556492,Co1Pt1F6,8,6,148,97.89790942284334,6.242125330234783,12.237238677855418,-0.66257842,-5.027116051249999,-1.9411580149999992,1.0,1.9373,0.0
mp-19379,Co4S4O16,24,3,62,270.06281397140555,3.812099399711893,11.252617248808564,1.51455921,-6.91416527125,-1.73689522,0.0,2.1606,1.0
mp-550763,Co4Sb8Br8O12,32,5,2,728.4226282798674,4.652824481842632,22.76320713374585,2.04615813,-5.6497340059375,-1.461084595312499,0.0,1.595799999999999,1.0
mp-1317,Co4Sb12,16,0,204,371.0008899393585,7.594834427268833,23.187555621209903,7.52693137,-22.736178655,-0.147884075,1.0,0.1633,0.0
mp-5881,Co8Sb8S8,24,3,61,402.4393002273977,7.023037647410139,16.768304176141573,8.01181375,-16.028720975833334,-0.370205661770834,0.0,0.367399999999999,0.0
mp-18973,Co4Se8O20,32,3,60,427.0174871570919,4.617434747293967,13.344296473659124,2.03187838,-6.1309011834375,-1.272770595898438,0.0,2.3763,1.0
mp-551407,Co2Se2O8,12,3,63,144.58519292438015,4.637370473472626,12.04876607703168,1.56744891,-6.403964646249999,-1.333769276640624,1.0,1.3657,1.0
mp-561319,Co1Sn1F6,8,6,148,107.11084981377776,4.521194728216607,13.388856226722218,-0.07458368,-5.47665731875,-2.648394465625,0.0,2.6481,0.0
mp-551806,Co2Te2Mo2O12,18,3,18,250.5841942568753,5.015987140621791,13.921344125381964,2.75608643,-7.315867137777778,-1.670296165185186,0.0,1.847299999999999,1.0
mp-698567,Cr1Bi14O24,39,5,1,645.2617048423795,8.651135283920192,16.545171919035372,3.75035126,-6.361238925641024,-1.672403235128204,0.0,2.019199999999999,1.0
mp-30205,Cr4Bi12O30,46,3,37,727.1675839141416,7.297680234023007,15.807990954655253,2.15045988,-6.801946998043475,-1.7208289165217372,0.0,2.408,1.0
mp-647862,Cr8Mo12O48,68,3,60,1083.3716383259307,3.579311015652639,15.931935857734274,-0.41418079,-8.635916218529411,-2.09364696382353,0.0,2.3556,1.0
mp-19262,Cr4Cd2O8,14,0,227,160.82633768443435,5.790301382345762,11.487595548888168,2.73344769,-7.864115909285714,-2.141551745,0.0,1.8327,1.0
mp-20758,Cr4Co2O8,14,0,227,145.38620266155158,5.183634917332189,10.384728761539398,3.0978209,-8.736890134285728,-2.132410751428586,1.0,2.606,1.0
mp-720712,Cr4H48I6N18,76,2,194,955.063082035723,2.207958916761884,12.56661950047004,0.62861129,-5.307710534342105,-0.560167718026316,1.0,1.9093,0.0
mp-21074,Cr4Hg2O8,14,0,227,164.94006408470707,7.421376491587794,11.781433148907649,2.31509323,-7.515733541428573,-1.886074827500002,0.0,1.2575,1.0
mp-1974686,Cr4Ni2O8,14,6,166,145.0305800941281,5.1908543577168125,10.35932714958058,5.76102652,-8.453904055714284,-2.042750392857141,0.0,0.7009999999999991,1.0
mp-554453,Cr12P12O42,66,4,15,779.7109712947744,3.551491354532655,11.81380259537537,4.39253682,-8.411884417272727,-2.52345086948052,1.0,0.657,1.0
mp-704115,Cr8P16Pb12O64,100,1,92,1333.8612541739517,5.504886856898496,13.338612541739517,2.74412752,-7.7357886512,-2.484856397942857,1.0,2.4535,1.0
mp-556473,Cr8P4Br4O16,32,4,14,489.2929040074698,3.785630057708158,15.290403250233432,2.63909912,-8.0188655053125,-2.250070627767856,0.0,2.2655,1.0
mp-540537,Cr4Te8O22,34,4,14,509.7544218908825,5.149405714263823,14.99277711443772,3.20019315,-6.828904732647072,-1.752028875686286,1.0,2.3209,1.0
mp-21355,Cr4Te2O12,18,1,136,187.13989992944465,5.8135509132781324,10.39666110719137,4.67433107,-7.815362011666666,-2.022343471296295,0.0,1.4893,1.0
mp-19894,Cr4W2O12,18,1,136,186.8221519491064,6.823199267633029,10.379008441617025,3.33399085,-9.188791489444444,-2.305236911666666,0.0,1.609599999999999,1.0
mp-776667,Cr12Fe8O48,68,4,14,995.36102427749,3.06743704332228,14.637662121727796,-1.08175076,-7.830827970294117,-1.6381975649999991,0.0,1.823599999999999,1.0
mp-546111,Cr6Ag2O16,24,4,12,316.4177298657328,4.112822985233676,13.184072077738866,0.17992534,-7.59053008,-1.641716069305554,0.0,1.2442,1.0
mp-23581,Cr6B14Br2O26,48,0,219,464.59703895432335,3.713980485941569,9.67910497821507,4.73142823,-8.520736729791667,-2.617598212881944,0.0,0.466099999999999,1.0
mp-559511,Cr12B28Cl4O52,96,3,29,923.9010567136193,3.415688467802699,9.623969340766868,3.84983466,-8.549215066666667,-2.637260038715278,0.0,2.7626,1.0
mp-558442,Cr6B14I2O26,48,0,219,469.8883256231152,4.004348410177127,9.789340117148232,4.90811045,-8.475353925833334,-2.576920988923611,0.0,2.026499999999999,1.0
mp-23565,Cr4Ag1Bi1O14,20,1,79,309.2644186250251,4.020677541436706,15.463220931251254,-0.254046999999999,-7.26608066,-1.535249863083333,0.0,1.698599999999999,1.0
mp-1226322,Cr4In1Ag1Se8,14,0,216,319.57433254957067,5.520076220302568,22.826738039255048,3.49843684,-5.93840305,-0.7825749697916661,0.0,9.999999999976698e-05,0.0
mp-557963,Cr16Si8Br8O28,60,4,7,916.598079880226,3.883844879186213,15.276634664670432,2.89731302,-8.164513232500001,-2.339683496166666,0.0,2.2567,1.0
mp-556318,Cr16Si8Cl8O28,60,4,7,897.4650306055162,3.308679091836903,14.957750510091936,2.80893005,-8.2671898615,-2.4141481085,0.0,2.320299999999999,1.0
mp-1226160,Cr5In1S8,14,4,8,262.49846045539994,3.9936578328825263,18.749890032528565,5.20180509,-6.956375245714286,-0.946997557619046,0.0,0.134599999999999,0.0
mp-773920,Cr20O48,68,3,60,1020.3745477293072,2.942132664442842,15.005508054842757,-0.8568749,-8.164017685294118,-1.832207719999999,0.0,1.794699999999999,1.0
mp-1226281,Cr1Ag1P2Se6,10,4,5,248.87336879121943,4.641011583473892,24.887336879121943,2.75944338,-4.95063641,-0.520396303501487,0.0,0.6964,0.0
mp-19378,Cr1Ag1O2,4,6,166,47.9865802322794,6.6392764695215885,11.99664505806985,2.5670638,-7.2827118925,-1.6847351029166662,0.0,1.6634,1.0
mp-3532,Cr1Ag1Se2,4,6,160,84.78312531820237,6.224036244495957,21.19578132955059,3.39825107,-5.468025192500001,-0.596073166588541,0.0,0.4239,0.0
mp-1226303,Cr2Ag2Sn2Se8,14,3,74,344.2940031964618,5.733751722259656,24.59242879974727,3.29018513,-5.016301467142857,-0.660701050863094,0.0,0.0041,0.0