material_id,composition,nsites,crystal_system,space_group,volume,density,density_atomic,efermi,energy_per_atom,formation_energy_per_atom,is_gap_direct,band_gap,is_oxide
mp-23738,Rb6Mg6H18,30,2,194,428.6656151988668,2.6216685563204,14.288853839962227,0.12862134,-2.884899170666666,-0.325598489916666,0.0,2.540499999999999,0.0
mp-15282,Rb4Mn16As12O48,80,3,58,1153.513900511491,4.157286622268609,14.418923756393642,1.36207646,-7.531664888750003,-1.980940143836209,0.0,1.722999999999999,1.0
mp-556158,Rb2Mn12As14O48,76,4,11,1049.5022595464998,4.188229261200258,13.809240257190789,3.38426251,-7.369539075921053,-1.911787821383848,0.0,1.4179,1.0
mp-568231,Rb6Mn6Br18,30,2,185,955.5399878525552,3.963416745872707,31.85133292841851,1.26446142,-4.543790978666667,-1.533113184752874,1.0,1.2358,0.0
mp-569309,Rb6Mn6Cl18,30,2,194,789.3611759695846,3.114640125663711,26.312039198986152,1.55256938,-4.961344522000001,-1.823708969086208,0.0,1.3133,0.0
mp-1219557,Rb1Mn1Cu1S2,5,1,119,109.92790064882304,4.049566798249158,21.985580129764607,3.91967195,-5.426699002,-0.9230039680862072,0.0,0.1549,0.0
mp-558749,Rb1Mn1F3,5,0,221,75.81974583115912,4.323308649455128,15.163949166231824,0.70073129,-6.190304176,-3.013482878086206,0.0,2.943699999999999,0.0
mp-553981,Rb4Mn4F16,24,4,14,364.0201510272656,3.948569909153661,15.167506292802734,-1.26837393,-5.913054671666667,-2.946728194238506,1.0,2.3279,0.0
mp-1029835,Rb16Mn16N32,64,0,227,1047.4762240042082,4.271856173623708,16.366816000065754,3.24649489,-7.15710731515625,-0.452331101514009,1.0,0.049599999999999,0.0
mp-18301,Rb4Mn4O16,24,3,62,406.827051686442,3.337240278030764,16.95112715360175,-2.07532758,-6.458905990833329,-1.469840426738501,0.0,2.137099999999999,1.0
mp-1203377,Rb4Mn4P8O28,44,4,14,628.3499665587548,3.322919414074234,14.280681058153515,1.82689535,-7.637080618863636,-2.581696668837886,1.0,1.1481,1.0
mp-559311,Rb8Mn8V8O32,56,2,173,1056.2108972591373,3.211557523079022,18.86090887962745,-0.13522466,-7.915200575892856,-2.34115779666872,1.0,2.7318,1.0
mp-15405,Rb4Mo8P12O52,76,4,4,1216.0008787300603,3.158634086212748,16.000011562237635,0.6133307100000001,-7.903049729078948,-2.469273522048873,0.0,2.2787,1.0
mp-676313,Rb4Mo12Br28,44,4,9,1443.2552838245651,4.292088828317521,32.8012564505583,0.51082804,-5.315716857954545,-1.226979571818182,1.0,2.2939,0.0
mp-1209508,Rb4Mo12Cl28,44,4,15,1257.527719396066,3.282493418683314,28.580175440819684,3.324152439999999,-5.748114642272725,-1.524725187499998,1.0,2.5766,0.0
mp-554787,Rb4Mo4I4O24,36,3,33,615.8191890029092,4.360827681171304,17.106088583414145,0.90448989,-6.418916998055555,-1.636921128333333,0.0,2.6081,1.0
mp-16856,Rb4Mo4P8O28,44,4,14,635.6035745919183,3.713474545142833,14.445535786179962,2.24873862,-7.807149092272727,-2.5987074315259733,1.0,2.8783000000000003,1.0
mp-1198591,Rb4Mo4P4O24,36,3,70,574.7277312273445,3.563939064404949,15.96465920075957,0.02687557,-7.596661239722222,-2.382280824404761,0.0,2.8368,1.0
mp-752580,Rb3N3O6,12,6,152,206.1037755799305,3.177766398269908,17.175314631660875,0.04640668,-6.059858983333334,-1.256175526458334,0.0,2.078799999999999,1.0
mp-8872,Rb2Na4B2O6,14,3,59,200.356644332597,3.153660473874979,14.311188880899786,1.38380392,-5.84409255,-2.245913919203612,0.0,2.9275,1.0
mp-556968,Rb8Na24Sn8O32,72,1,88,1219.5920718032553,3.672322714515493,16.93877877504521,1.56997395,-5.051728265555555,-1.850938011848658,0.0,2.3483,1.0
mp-550300,Rb1Na7Co2O6,16,4,12,260.91390982681986,2.929234432850423,16.30711936417624,1.52413388,-4.8540604525,-1.458611765447198,0.0,0.2889,1.0
mp-1200468,Rb4Na32Ga12As24,72,3,62,1915.044780516155,3.218975712950574,26.597844173835487,2.00734452,-3.150686699999999,-0.438502057557471,1.0,0.4329,0.0
mp-1202177,Rb4Na32Ga12P24,72,3,62,1755.4434747233,2.513913011634438,24.381159371156947,1.89006652,-3.367777860694444,-0.407142887299534,1.0,0.903999999999999,0.0
mp-1219559,Rb1Na1Cd3O4,9,4,8,162.09374658603886,5.221405110924684,18.01041628733765,0.39107362,-4.183375767777778,-1.406250274319922,1.0,0.4397,1.0
mp-8799,Rb2Na2S2,6,1,129,166.63596727557243,2.800634458976748,27.77266121259541,0.61649192,-3.365335245,-1.21179710545977,0.0,2.2945,0.0
mp-6708,Rb2Nb4P2S20,28,4,7,755.2394482961494,2.739149719386445,26.97283743914819,2.39425571,-5.939813501071429,-1.08394111872449,0.0,1.5518,0.0
mp-1192452,Rb2Nb4P2Se20,28,4,7,820.3111227677284,4.420436847423867,29.29682581313316,2.31733993,-5.313836686428571,-0.9168557968271672,0.0,0.912999999999999,0.0
mp-1201687,Rb4Nb12Te8O48,72,3,57,1118.5526048576503,4.8181113709505485,15.535452845245146,3.79537243,-7.882399367916666,-2.496477532407408,0.0,2.403299999999999,1.0
mp-1209219,Rb2Nb2Cl12,16,4,15,453.5531960013959,2.86371631489842,28.34707475008724,1.02899118,-4.68390614625,-1.9122691571875,0.0,2.2919,0.0
mp-1029493,Rb16Nb16N32,64,3,61,1293.752074641811,4.238396473864339,20.21487616627829,1.29795989,-7.86020133609375,-0.92060268546875,0.0,1.8791,0.0
mp-562977,Rb4Nb4S8O36,52,3,62,843.3393075954183,3.044071668914228,16.218063607604197,0.23675501,-7.183709211538462,-2.269077881346154,0.0,2.7814,1.0
mp-1219576,Rb2Nb2Te2O12,18,3,74,284.52498528327305,4.691945426510151,15.806943626848502,3.44308897,-7.167359137777778,-2.288146800462963,0.0,2.274499999999999,1.0
mp-1195415,Rb4Nb4V8O32,48,3,62,799.0942531539831,3.393437123827221,16.64779694070798,-1.01946426,-8.330989267916667,-2.594877660208334,0.0,2.5161,1.0
mp-27409,Rb2Ni2Br6,10,2,194,292.0606172205687,4.365096884934357,29.20606172205687,1.24427153,-3.600229622,-1.2659275505,0.0,0.4723,0.0
mp-23486,Rb2Ni2Cl6,10,2,194,247.98095497605672,3.35508490248867,24.798095497605672,1.42430059,-4.012759160000002,-1.551499329500001,0.0,0.7089000000000001,0.0
mp-1209298,Rb2P30,32,5,2,798.9282985612765,2.286612578600145,24.96650933003989,4.3323753400000005,-5.23931468625,-0.101024876696427,0.0,1.5046,0.0
mp-556953,Rb2P2S6,10,3,71,282.46844577595846,2.500040790174273,28.246844577595844,0.97225391,-4.741105191999996,-0.978887931928566,0.0,1.8376,0.0
mp-571464,Rb6P6Se18,30,6,152,936.9033196344336,3.757298610076806,31.230110654481123,1.00377956,-4.181909743666669,-0.80516133750149,0.0,1.122999999999999,0.0
mp-17945,Rb4P4Se24,32,3,29,979.0433013472184,4.004124228298113,30.59510316710057,1.20035796,-4.116510074375,-0.695075516400669,0.0,1.8728999999999991,0.0
mp-8014,Rb1Ru1F6,8,6,166,128.712571678186,3.877157002542467,16.08907145977325,-2.1891649,-5.1704564525,-2.4532000946875,1.0,1.1801,0.0
mp-9062,Rb6S6,12,2,189,418.7423096987641,2.796485592496512,34.89519247489701,0.80819312,-3.718430895833331,-1.15898407583333,0.0,1.5781,0.0
mp-10487,Rb8Sb8,16,4,14,686.7533728171279,4.008540721674215,42.922085801070494,2.31061394,-3.069903603124999,-0.5151359468749981,0.0,0.7347,0.0
mp-568018,Rb2Sb4,6,4,12,249.76683744463685,4.374456592588111,41.627806240772806,3.25886014,-3.48861219166667,-0.409100007500003,0.0,0.267599999999999,0.0
mp-1209255,Rb4Sb8P4O32,48,4,9,695.4168468826954,4.660636392372685,14.48785097672282,2.10679526,-6.738953692291666,-2.219145515803571,0.0,2.266299999999999,1.0
mp-1198114,Rb4Sb12Se20,36,3,62,1121.508969250155,5.007771468886056,31.153026923615407,3.7981721,-4.142685657499999,-0.715230637413194,1.0,0.6848999999999991,0.0
mp-1209179,Rb2Sb2Cl12,16,4,15,466.6226639178981,2.9888664253877133,29.16391649486863,1.19513191,-3.540201436875,-1.515102422812499,1.0,2.0641,0.0
mp-1219606,Rb2Sb2Mo2O12,18,3,46,284.0355824586067,4.667216285725267,15.779754581033709,1.3537672,-7.111303558333333,-2.039864508055555,0.0,2.4282,1.0
mp-10418,Rb2Sb2O4,8,4,15,167.90834010311085,4.731690097417999,20.988542512888856,2.28549276,-5.61573791,-1.864373579375,0.0,2.2483,1.0
mp-10621,Rb4Sb4S8,16,5,2,489.07996330808464,3.685288801273457,30.56749770675529,1.97539408,-4.311409661875,-0.9648460499999992,0.0,1.9492999999999991,0.0
mp-1189259,Rb4Sb4Se8,16,5,2,542.575632156056,4.470102607251972,33.9109770097535,1.6573885700000002,-3.950202596875,-0.9248630299218752,0.0,1.5375,0.0
mp-13336,Rb1Sc5Te8,14,4,12,451.3463408598273,4.897029045509031,32.239024347130524,4.35194202,-5.605538172857142,-1.477729119702379,0.0,0.3281,0.0
mp-9063,Rb6Se6,12,2,189,473.2466674527814,3.461688852513694,39.437222287731785,0.34982075,-3.402452095833332,-1.164229320755207,0.0,0.9245,0.0
mp-1074,Rb32Si32,64,0,218,2247.7077668818056,2.684472685563524,35.12043385752821,1.99835135,-3.208539375624999,-0.005613324374999,0.0,1.412499999999999,0.0
mp-11054,Rb16Sn16,32,1,142,1356.4954757100998,3.999072250557506,42.39048361594062,2.78066032,-2.773702828125,-0.278649864374999,0.0,0.877899999999999,0.0
mp-15108,Rb8Sn8As8O40,64,3,33,1023.9693727323828,4.658683095446553,15.99952144894348,1.20335953,-6.32274671890625,-2.022742533281251,1.0,2.0723,1.0
mp-998778,Rb4Sn4Br12,20,3,62,701.0268168324552,4.205809743460504,35.05134084162276,0.58821243,-3.5038129585,-1.523623852,0.0,2.5418000000000003,0.0
mp-998611,Rb2Sn2Cl6,10,6,161,351.0235235553608,2.938028100191553,35.10235235553608,0.93858553,-3.88993258,-1.7827857145,1.0,2.3264,0.0
mp-29405,Rb4Sn4I12,20,3,62,862.5786152100532,4.503866369000728,43.128930760502655,1.89530325,-3.064690358999999,-1.152261604499999,0.0,2.0077,0.0
mp-554199,Rb2Sn2I2O12,18,2,182,319.8376926509737,4.434629390729569,17.76876070283187,0.893044499999999,-5.537228591111111,-1.514796971944444,0.0,2.1663,1.0
mp-557059,Rb16Sn16S64,96,3,60,2786.7803153611867,3.169397751644508,29.028961618345694,2.8125752200000003,-4.500712704270836,-0.9101220046875,1.0,1.4729,0.0
mp-975115,Rb2Tc2O8,12,1,88,222.20086716420715,3.698689114728971,18.516738930350595,-1.68488165,-7.348203695833334,-2.159367522916668,0.0,2.9741,1.0
mp-8360,Rb4Te4,8,3,55,322.43639110788814,4.389174615419019,40.30454888848602,2.26910384,-3.110644263333331,-1.048724280416663,0.0,0.8245999999999991,0.0
mp-6125,Rb2Ti4P6O24,36,6,167,489.361453143884,3.1633208267358,13.59337369844122,0.83831003,-8.158135682222222,-3.025165085449734,0.0,2.6058,1.0
mp-1219566,Rb4Ti4Nb4O20,32,3,62,472.80712947817005,4.302138693515294,14.775222796192814,3.19370523,-8.5698407721875,-3.105198752916667,0.0,2.6967,1.0
mp-6539,Rb8Ti8P8O40,64,3,33,924.842685345289,3.509171333173997,14.45066695852014,0.91604502,-7.917452675625,-3.038539595684524,1.0,2.7021,1.0
mp-758985,Rb4Ti4P4S20,32,4,12,897.99191954194,2.401209633625602,28.062247485685624,1.06749408,-5.6230950140625,-1.250182832559522,0.0,1.2097,0.0
mp-15998,Rb2V2Cu4S8,16,3,40,377.0057409669853,3.451061205399365,23.56285881043658,2.58987402,-5.43586768625,-1.083831217187499,0.0,1.108099999999999,0.0
mp-556847,Rb2V2I4O16,24,5,2,418.329759344166,4.1140446871685175,17.430406639340248,0.96672994,-5.868886619583333,-1.477540501875,0.0,2.7622,1.0
mp-559279,Rb4V4P8O32,48,4,14,731.7962879554492,2.962137382959626,15.24575599907186,1.87816059,-7.631558406666667,-2.591635470565476,0.0,2.1013,1.0
mp-560376,Rb2V4I6O26,38,3,46,606.7683316337764,4.247657366100454,15.967587674573062,1.40305265,-6.135166824473684,-1.501278554868421,0.0,1.7589,1.0
mp-622258,Rb4V8Sb4O32,48,3,62,750.0184121418148,3.871006777940369,15.625383586287809,0.19580208,-7.481109622708334,-2.242689998333334,0.0,2.7554,1.0
mp-623590,Rb4V8Se4O28,44,3,62,753.0190316117701,3.336929676839793,17.1140689002675,1.24575124,-7.335510387045454,-2.128239048394886,0.0,2.0481,1.0
mp-16917,Rb2V6Se4O24,36,2,173,538.2731134128945,3.6291522774764,14.95203092813596,0.42536958,-7.239527832777778,-1.983994094010417,0.0,2.3219,1.0
mp-1219122,Rb2V6Cd8O24,40,4,9,596.6435258079553,4.897921734454512,14.91608814519888,2.49208623,-6.5964340335,-2.024042778375,0.0,2.3178,1.0
mp-16864,Rb2V6O16,24,4,11,330.7479767445294,3.677934537008821,13.781165697688726,-0.37615943,-8.020188418750001,-2.368860058541668,0.0,2.0696,1.0
mp-2760180,Rb1V5Se8,14,5,1,303.3048433758951,5.320731692807905,21.66463166970679,3.8454274,-15.272628039285715,-1.067540765982142,0.0,0.1421,0.0
mp-568136,Rb6V6Br18,30,6,165,929.5890108093448,4.031227382216596,30.986300360311496,2.8317403800000003,-4.5440290690000005,-1.5489731195,0.0,0.607899999999999,0.0
mp-23319,Rb2V2Cl6,10,2,194,263.03230905853485,3.065222274213907,26.30323090585349,3.43788076,-4.993331596000002,-1.871317887500001,0.0,0.4023,0.0
mp-556424,Rb1V1F3,5,0,221,73.12138287356564,4.392090674799269,14.624276574713129,2.2673747,-6.195787120000003,-3.034587666500003,0.0,2.2325,0.0
mp-1029312,Rb2V2N4,8,1,122,137.02217535689567,3.985198980744564,17.12777191961196,2.16143941,-7.60028163875,-0.9150327306250012,0.0,0.5831000000000001,0.0
mp-559739,Rb4V4O4F12,24,3,55,411.2544928460822,3.382074881985205,17.13560386858676,-0.67426775,-6.434108675833333,-2.975115630416667,0.0,2.7001,1.0
mp-18436,Rb4V4P8O28,44,4,14,632.9832693179507,3.25665894537226,14.385983393589788,1.59505241,-7.78735277840909,-2.7390696667532453,0.0,1.9638,1.0
mp-12024,Rb4V4Se8,16,3,70,515.6752493416097,3.791109243416577,32.22970308385061,1.907040509999999,-5.427059926875,-1.162994152421875,0.0,0.0483,0.0
mp-999265,Rb1Y1S2,4,6,166,109.65482276389513,3.611739259334195,27.41370569097377,1.71116181,-6.032695564999999,-2.091109388124998,0.0,2.3166,0.0
mp-16764,Rb2Y2Te4,8,2,194,300.7279415103493,4.743981049611957,37.59099268879366,2.85543072,-5.035678081250001,-1.591618741458334,0.0,1.356299999999999,0.0
mp-975140,Rb1Zn4P3,8,1,123,164.32523349486002,4.446540741473401,20.540654186857505,2.9895138,-3.082649767499999,-0.29940863142857,1.0,0.194799999999999,0.0
mp-1209995,Rb4Zr24B4Cl60,92,3,51,2701.6570221708025,2.889822298625778,29.36583719750872,1.35605119,-5.948975244021739,-2.180528651702898,0.0,0.0026,0.0
mp-567966,Rb4Zr24C4Cl60,92,3,51,2683.179963372794,2.912692181465529,29.1649996018782,1.88805165,-6.084061299021739,-2.204776718804348,0.0,1.2072,0.0
mp-1209676,Rb2Zr12Mn2Cl28,44,3,64,1173.92467225515,3.349841456671618,26.68010618761705,2.57142526,-6.022134874090909,-2.053573403883229,0.0,1.2076,0.0
mp-555669,Rb2Zr2Mn2F14,20,3,63,319.49561375098426,3.790121150778813,15.974780687549211,0.10866364,-6.779103085999999,-3.570381424043103,0.0,2.3454,0.0
mp-1194813,Rh8Se36Br24,68,1,88,2019.5051024666448,4.591035628994768,29.6986044480389,0.69376481,-3.998550986764709,-0.703639325064342,1.0,1.3799,0.0
mp-974381,Rh4S6,10,6,167,163.22288044051223,6.144883119255724,16.322288044051223,6.11222071,-15.08653634,-0.6110454386875,0.0,0.4203,0.0
mp-27871,Rh2Br6,8,4,12,217.1606819796268,5.239712257895749,27.145085247453345,0.72983111,-3.91458344125,-0.8457965725000001,0.0,1.2584,0.0
mp-27770,Rh2Cl6,8,4,12,183.4484366347528,3.788441960880535,22.931054579344096,0.98383133,-11.43302078625,-0.784634455624997,0.0,1.521199999999999,0.0
mp-2068,Rh2F6,8,6,167,93.24210571822658,5.695310568602026,11.655263214778325,0.83282575,-10.15320715875,-1.7746290387499992,0.0,0.862599999999999,0.0
mp-1209109,Rh4F24,28,3,62,376.3218799290218,3.828256250055379,13.440067140322208,-3.53907393,-7.506231192142857,-1.378746002142857,0.0,0.5939999999999991,0.0
mp-1206891,Rh2I6,8,4,12,277.3315105367346,5.791394507225584,34.66643881709182,3.0137478,-3.5508435725,-0.5667571437499991,0.0,1.0096,0.0
mp-1179727,Rh12S12Cl60,84,4,15,2257.253434182464,2.756336906850699,26.87206469264838,0.8560010100000001,-3.835235555714285,-0.871609636071428,1.0,1.5419,0.0
mp-556834,Ru2Cl2O4F12,20,4,13,319.7016457138174,2.934752342147153,15.98508228569087,-1.61598631,-4.7921180915,-1.5419199315,0.0,0.562,1.0
mp-28437,Ru8Cl8F64,80,3,54,1282.8709504429746,2.987564730852795,16.035886880537184,-1.73688069,-4.268338057999999,-1.624961623999999,1.0,1.12,0.0
mp-974434,Ru2F8,10,4,14,126.86488029743305,4.635184231260965,12.686488029743304,-0.15343898,-9.470013682,-1.8842842629999992,0.0,0.1813,0.0
mp-540829,Ru8F40,48,4,14,641.2443581227958,4.061710740004784,13.35925746089158,-2.2327293,-8.714482279166667,-1.872036438333334,0.0,0.710199999999999,0.0
mp-554791,Ru8O32,40,0,218,606.9473917988681,3.612849510630859,15.173684794971702,-2.96590731,-6.99522299375,-1.181973681749999,1.0,2.4654,1.0
mp-2030,Ru4S8,12,0,205,178.51153198083136,6.146853388312788,14.875960998402611,7.57206877,-14.518220976666669,-0.6867098235416661,0.0,0.6683999999999991,0.0
mp-29568,Ru2S6Cl16,24,5,2,623.0275879275,2.563401642789309,25.9594828303125,0.46912496,-3.761725990833332,-0.721907353958332,0.0,1.860199999999999,0.0
mp-1922,Ru4Se8,12,0,205,212.9507559960809,8.078168322945961,17.745896333006744,5.90710577,-18.5393966125,-0.523511360208331,0.0,0.313799999999999,0.0
mp-30984,S2I4O12,18,4,15,295.4156453756228,4.293006331059745,16.41198029864571,1.64699859,-5.238041249999999,-1.1409133802777771,0.0,1.8938,1.0
mp-1202716,S8I8O44,60,3,33,874.7537361651671,3.7505136036242703,14.579228936086118,3.06409331,-5.620680033833336,-1.237192339166669,0.0,2.614099999999999,1.0
mp-540798,S6N4O28,38,4,9,506.70229170365866,2.282206780814309,13.334270834306809,-0.54425861,-6.431979571842104,-1.254974926447367,0.0,1.405,1.0
mp-1191944,S4I2O15,21,5,1,308.32703673732817,3.350192195492908,14.682239844634674,0.33145325,-5.881360851904762,-1.4136999673809512,0.0,2.374399999999999,1.0
mp-1197503,S10I4O36,50,4,15,778.4385950161465,2.99549100211219,15.568771900322927,2.66707492,-5.9531297204000015,-1.441004874100001,0.0,2.738,1.0
mp-28099,S4Br4,8,3,41,253.14320247425,2.937924414810992,31.64290030928125,-0.95650558,-3.1987406025,-0.311087551249999,0.0,2.2489,0.0
mp-28407,S8Br16O8,32,3,29,894.037532029428,3.088731546062564,27.938672875919625,-1.64331227,-3.9670695253124992,-0.8770161146874991,1.0,2.7573,1.0
mp-28096,S8Cl8,16,3,43,465.5479909369948,1.926611715763964,29.096749433562174,-1.09798258,-3.466514059999999,-0.473062876249999,0.0,2.8804,0.0
mp-1210452,S32Cl128,160,0,218,4855.3111600425145,1.902935844173941,30.345694750265714,-0.51326788,-2.944405329312499,-0.6378991758125,1.0,2.6189,0.0
mp-29264,S4I4Cl28,36,4,14,1054.799509741041,2.563795867500411,29.299986381695582,0.07756662,-2.734901291666665,-0.6679933158333331,0.0,1.668499999999999,0.0
mp-23598,S8I8O24F8,48,3,19,981.070934531954,3.059721608846206,20.43897780274904,0.19576107,-5.234018565,-1.497333969583333,0.0,1.9334,1.0
mp-27726,S2O4,6,3,41,104.41966208548168,2.037555773121775,17.403277014246946,-2.00973933,-6.199653651666666,-1.521559792499999,0.0,2.8368,1.0
mp-28431,Sb2I4F12,18,5,2,367.1138441188268,4.428775729351865,20.395213562157046,0.20802525,-4.128257372222221,-2.054908403333332,0.0,0.5754,0.0
mp-540656,Sb1S24I3,28,6,160,849.1591335879498,2.487473887727597,30.32711191385535,0.8495689,-4.370798454999999,-0.512881715535712,0.0,2.5185,0.0
mp-15046,Sb8P12Se36,56,4,14,1565.700172623276,4.442023860534176,27.958931653987072,2.69489495,-14.983955422142856,-0.182319531106504,0.0,1.5032,0.0
mp-532120,Cl35F85Sb24,144,5,1,3236.587178242869,2.964396312534528,22.476299848908813,-1.76733687,-4.456368206388888,-2.18919820892361,0.0,1.8188,0.0
mp-30213,Sb8Br4F60,72,4,14,986.0420580433722,4.098291911929285,13.695028583935724,-2.9134643,-4.316902904027778,-2.172306535138889,0.0,2.982,0.0
mp-559807,Sb8Br4F68,80,4,14,1285.4537141519422,3.340041628699759,16.068171426899276,-3.29490216,-4.11540923675,-1.993887267249999,0.0,0.1523,0.0
mp-680240,Sb16Cl40F32,88,4,15,2141.2785573199426,3.081972837903866,24.332710878635712,-1.13259045,-4.144185475681818,-1.857264932045454,0.0,2.3241,0.0
mp-559349,Sb8Cl4F68,80,4,14,1256.1060427073594,3.183026187995135,15.701325533841992,-2.86184508,-4.02908587475,-1.896984091999999,0.0,0.327999999999999,0.0
mp-558692,Sb8Cl4O8F44,64,4,14,1100.100120386238,3.139366333640938,17.18906438103497,-3.12112953,-4.72826742890625,-2.16233971546875,0.0,1.8316999999999992,1.0
mp-696088,Sb4H40Cl24O18,86,4,15,1285.947624229783,2.151581727568847,14.952879351509106,-1.11612669,-4.549091122325581,-1.2264052176744191,0.0,1.7417,1.0
mp-560928,Sb16I8Br16F88,128,3,61,2750.3399221101354,3.570453873951253,21.48703064148544,-0.02611024,-4.341480243984375,-2.209712475859374,1.0,1.708899999999999,0.0
mp-2136,Sb8O12,20,3,56,331.9848734985325,5.832523086050206,16.599243674926626,4.28242699,-6.372114600999998,-1.751737501999998,1.0,2.2239,1.0
mp-1705,Sb4O10,14,4,15,160.9217283676086,6.67669459753784,11.4944091691149,5.09677719,-6.462006590714286,-1.74803409,0.0,0.5057,1.0