material_id,composition,nsites,crystal_system,space_group,volume,density,density_atomic,efermi,energy_per_atom,formation_energy_per_atom,is_gap_direct,band_gap,is_oxide
mp-556059,K4Ni2N8O24,38,4,9,561.8309902740338,2.275265832515324,14.785026059842991,-0.838299,-6.494935695263158,-1.191171528657895,0.0,2.944,1.0
mp-17228,K4Ni6S8,18,3,70,372.6678223555598,3.409026820706266,20.70376790864221,3.41967316,-4.961647047777777,-0.9442484082777752,0.0,0.7685999999999991,0.0
mp-1188089,K4Ni6Se8,18,3,70,428.58778675497774,4.41777039935207,23.810432597498764,3.03408375,-4.567219577777777,-0.835353422652776,0.0,0.4373,0.0
mp-9673,K4Ni2As4,10,3,63,263.3297173807489,3.616239633165227,26.33297173807489,2.79258577,-3.883572323000001,-0.406948084900001,0.0,0.080299999999999,0.0
mp-605034,K2Ni1F6,9,0,225,128.12432984816914,3.251503735631345,14.23603664979657,-3.04040066,-4.554050083333329,-2.384495597166662,0.0,2.3603,0.0
mp-19252,K2Ni1O2,5,1,139,98.06519350673187,2.859796022244552,19.613038701346376,0.74960464,-4.888527124,-1.3007674969,0.0,0.577,1.0
mp-9672,K4Ni2P4,10,3,63,243.9804729994642,2.7065893630654623,24.39804729994642,3.51057219,-8.972746016,-0.568266484690475,0.0,0.6445000000000001,0.0
mp-1025162,K2Np1O4,7,1,139,121.32610783039468,5.189870458948236,17.332301118627814,3.01213477,-7.890692515714284,-2.890354923321427,0.0,0.2662,1.0
mp-971,K4O2,6,0,225,129.6009765025592,2.413811101405781,21.60016275042653,0.47156282,-3.637444853333333,-1.233878036499999,0.0,1.7072,1.0
mp-2672,K4O4,8,3,64,150.3161849315957,2.434651554559929,18.789523116449462,0.88468063,-4.3246242175,-1.284958853625,0.0,2.3575,1.0
mp-762088,K12Os6O30,48,2,174,856.9983391637969,4.050679958772921,17.854132065912435,-0.53674797,-6.584142516458333,-1.805403528895832,0.0,1.6618,1.0
mp-7505,K4P4Pd2,10,3,63,264.3850171311265,3.097220597193998,26.43850171311265,2.40998704,-4.171035033,-0.516321371757141,0.0,1.0789,0.0
mp-1224154,K8P8Pd4O28,48,3,62,756.0603389309309,3.150027747050063,15.75125706106106,1.03962558,-6.782352689374999,-2.373244744273808,0.0,1.1969,1.0
mp-569857,K8P12,20,3,70,574.7815911954909,1.977432395536569,28.739079559774545,2.26680503,-8.3585340175,-0.549982655785713,0.0,1.0327,0.0
mp-9687,K4P2Au2,8,3,63,224.43918719240853,4.529978387586348,28.054898399051066,2.01925133,-18.50150657125,-0.595615487619046,1.0,0.9515,0.0
mp-9509,K4P2Au2S8,16,4,11,444.1260999059251,3.248325529571162,27.75788124412032,1.48538495,-4.44809615375,-1.009904498642856,1.0,1.5691000000000002,0.0
mp-1202353,K16P8S24,48,4,14,1387.598635878258,1.966085568030901,28.908304914130373,0.77525511,-4.537646933125,-1.188764987565474,1.0,2.887,0.0
mp-31314,K16P8Se24,48,4,14,1520.5090442976496,3.023356670015753,31.67727175620104,0.49103021,-4.076642587499997,-1.048984686862347,0.0,1.973899999999999,0.0
mp-20694,K4Pb4O6,14,0,199,300.6387442494664,5.971810365572381,21.474196017819025,2.60597878,-5.065968457142852,-1.5614089427857092,0.0,1.6906999999999992,1.0
mp-1211440,K4Pb2Cl12,18,4,14,535.3762610553601,3.089934362473732,29.74312561418668,-1.01233193,-13.138757877777778,-1.445836170277776,0.0,1.6065,0.0
mp-556517,K8Pb4O8,20,5,2,449.9532265536319,4.685353322575296,22.49766132768159,1.4594664,-4.710460267499999,-1.536198562399998,1.0,1.9147,1.0
mp-561277,K8Pb4O12,24,2,193,390.0948599940293,5.676722733642449,16.25395249975122,1.66398399,-5.058117122499998,-1.588238867416664,0.0,1.1376,1.0
mp-556518,K8Pd4N16O48,76,4,14,1137.557613075723,2.526146556332875,14.967863329943729,-0.90122393,-6.4069929247368425,-1.134821119710526,0.0,1.8362,1.0
mp-1195978,K8Pd4S24O84,120,5,2,1888.914348687941,2.507163741063827,15.740952905732842,-0.97449016,-6.292888861666666,-1.753556869483333,0.0,1.4223,1.0
mp-9910,K4Pd6S8,18,3,70,423.4640499661529,4.123008563914228,23.52578055367516,1.89278094,-13.394107405555555,-0.8321201798611101,0.0,1.2114,0.0
mp-14339,K4Pd6Se8,18,3,70,466.0077766554914,5.083421048780456,25.88932092530508,1.8284183,-4.443994464444446,-0.9122132659861112,0.0,0.764,0.0
mp-27138,K2Pd1Br4,7,1,123,239.305784744677,3.498862059881381,34.186540677811,-0.797167299999999,-3.482016345714285,-1.483386717785713,0.0,1.204899999999999,0.0
mp-1205761,K2Pd1Br6,9,0,225,274.2280684450501,4.020979195750913,30.469785382783343,-0.52223811,-3.225186222222222,-1.306930614944443,0.0,0.5077,0.0
mp-22956,K2Pd1Cl4,7,1,123,204.0405207788224,2.656567630226341,29.14864582554605,-0.4736166,-10.062401124285714,-1.547152971071427,0.0,1.4279,0.0
mp-23067,K2Pd1Cl6,9,0,225,230.9616631159454,2.85670624687467,25.662407012882824,-0.55714191,-9.303229534444444,-1.313050104722221,0.0,1.2027,0.0
mp-28163,K2Pd1F4,7,4,12,119.31791917142012,3.6268939528489152,17.04541702448859,-1.02281075,-4.570326758571428,-2.413465222071428,0.0,1.8732,0.0
mp-7979,K2Pd1F6,9,6,164,129.11757828693635,3.840287492386653,14.346397587437371,-2.02499874,-4.484720547777774,-2.3818610471666632,0.0,2.0399,0.0
mp-540584,K2Pd1O2,5,3,71,80.7330356888642,4.455404544843593,16.14660713777284,2.16042024,-4.756591438000001,-1.2888827849,0.0,1.3697,1.0
mp-1068941,K2Pd1S2,5,3,71,121.035042309117,3.412676519986726,24.2070084618234,1.64574095,-11.281721762,-1.068325832624998,0.0,1.117,0.0
mp-1069706,K2Pd1Se2,5,3,71,135.7483202319117,4.190073255187324,27.149664046382338,1.42324451,-3.966355664000002,-1.079466821837501,0.0,0.8458000000000001,0.0
mp-1062676,K2Pt1,3,0,225,108.14578813658052,4.1961237720213305,36.04859604552684,-0.10184974,-21.20566127,-0.030913012499998,0.0,1.3146,0.0
mp-27691,K2Pt1Br6,9,0,225,278.63005027523803,4.485859987732288,30.958894475026447,-0.33168394,-3.36384313,-1.346559577166666,0.0,1.1688,0.0
mp-976876,K2Pt1C2,5,6,164,118.77412289190336,4.156474268621744,23.75482457838067,1.18412465,-5.440544359999997,-0.082303609899996,0.0,0.9937999999999992,0.0
mp-22934,K2Pt1Cl4,7,1,123,204.03195477243145,3.378281991785835,29.147422110347343,0.07500094,-14.097918777142857,-1.507347296785714,0.0,1.819599999999999,0.0
mp-23513,K2Pt1Cl6,9,0,225,233.9692400014466,3.449255387622394,25.996582222382955,-0.28395751,-12.533272714444443,-1.373397363611109,1.0,1.8566,0.0
mp-3821,K2Pt1F6,9,6,164,131.16901761462003,4.902671899495277,14.574335290513336,-1.06482487,-4.631283225555553,-2.429395779388886,0.0,2.5717,0.0
mp-28247,K4Pt2I12,18,1,128,699.9543674986297,4.909383163222444,38.88635374992387,1.607628319999999,-2.9474071011111143,-1.00541282827778,0.0,0.8659999999999991,0.0
mp-7928,K2Pt1S2,5,3,71,120.87900027423863,4.635077073055109,24.17580005484773,2.70672237,-17.029149536,-1.110300948624998,0.0,1.235599999999999,0.0
mp-8621,K2Pt1Se2,5,3,71,135.22322684189265,5.295136483309631,27.04464536837853,2.01132511,-4.153143052000002,-1.088003907837501,0.0,0.9345,0.0
mp-29334,K8Pu4Cl20,32,3,62,889.242063346347,3.730707456394862,27.788814479573343,2.52725875,-5.590511098750003,-2.310087857906251,0.0,0.060799999999999,0.0
mp-2760749,K2Pu1Cl6,9,5,2,278.47387344825955,3.189694528954611,30.941541494251062,-0.13929759,-17.183836093333333,-2.149668381249998,0.0,1.1938,0.0
mp-505397,K2Pu1Cl6,9,4,12,290.06968132734244,3.062183495117953,32.22996459192694,0.94642722,-5.32132989,-2.200004475916665,0.0,0.3467,0.0
mp-1211726,K4Rb8Fe4O10,26,4,12,587.598548851854,3.457608078049167,22.59994418660977,1.41153828,-5.137336414230769,-1.455434631115384,0.0,0.980399999999999,1.0
mp-621964,K8Rb4Bi4Se12,28,0,198,1027.9188645555007,3.938597791564911,36.71138801983931,0.31712735,-3.671810167857142,-1.154518416290178,1.0,2.1311,0.0
mp-558227,K2Rb1Mn2F7,12,1,139,201.79344346384303,3.345291072745835,16.81612028865359,0.5469959600000001,-5.9144224225,-3.000733195238506,0.0,2.6186,0.0
mp-23021,K2Re1Br6,9,0,225,284.2759580536081,4.344914698633767,31.58621756151201,0.35795929,-4.06171701111111,-1.335880026333332,1.0,0.97,0.0
mp-22947,K2Re1Cl6,9,0,225,239.4994734153692,3.308061788280559,26.61105260170769,0.82268248,-12.749332895555556,-1.486913343888888,1.0,1.0776,0.0
mp-7824,K2Re1F6,9,6,164,133.31535854723708,4.713170772643979,14.812817616359675,0.70440068,-5.675931817777774,-2.765490939666662,0.0,1.6997,0.0
mp-27595,K8Re4F32,44,3,62,622.5261156975879,4.442758081612841,14.148320811308816,-0.41331284,-5.5107562168181765,-2.78151324836363,0.0,1.0873,0.0
mp-1097045,K8Ru4Br24,36,3,62,1115.3905882983754,3.9225056606254913,30.98307189717709,0.21772926,-3.66394557527777,-1.290743220222213,0.0,0.0202,0.0
mp-17789,K8Ru4O16,28,3,62,506.3465325038915,3.191092911075409,18.08380473228184,1.05838504,-6.189551693214286,-1.713982263857143,0.0,0.169599999999999,1.0
mp-1022,K2S1,3,0,225,101.87707708492104,1.79720207513612,33.95902569497368,-0.34024571,-7.938075023333333,-1.2475660384375,0.0,2.3201,0.0
mp-7667,K4S6,10,3,36,272.4065994738514,2.12611636609544,27.240659947385137,1.63117306,-8.172802736,-0.9444977121874992,0.0,1.2855,0.0
mp-17146,K8S20,28,3,19,750.6127739044418,2.110672500110484,26.80759906801578,1.3597609,-8.158680591071429,-0.699891550580356,0.0,1.929899999999999,0.0
mp-27140,K4Sb8O22,34,4,12,528.2887497514081,4.65972963806291,15.53790440445318,1.86403383,-6.278431415000001,-1.9721775643823527,0.0,1.8585999999999991,1.0
mp-863757,K4Sb2Au2,8,3,63,270.97015801647814,4.864789786357896,33.87126975205977,1.86014473,-22.7013843525,-0.6194334143749991,0.0,1.0023,0.0
mp-560240,K8Sb4P4O24,40,3,62,645.1678459608684,3.365788692767355,16.12919614902171,0.96758528,-6.5473599545,-2.397861930414285,1.0,2.6337,1.0
mp-1195538,K8Sc4P8Se28,48,4,15,1478.1569832060727,3.315423213685589,30.794937150126515,1.05938287,-4.737411097708334,-1.079283102307663,0.0,1.7243,0.0
mp-8426,K2Se1,3,0,225,112.88877285139448,2.311697321907826,37.62959095046483,-0.51456796,-3.159488603333333,-1.239938295614582,0.0,2.0925,0.0
mp-7670,K4Se6,10,3,36,310.2867416586008,3.372345208659668,31.02867416586008,1.0493969,-3.6239855469999993,-1.073890771306249,0.0,0.644,0.0
mp-23036,K2Se1Br6,9,0,225,287.7241469766528,3.673890309336613,31.96934966407253,-0.42338219,-3.030345867777776,-1.299198075204859,0.0,1.6978,0.0
mp-6984,K4Si2As4,10,3,72,296.8938394839368,2.865038003711464,29.68938394839368,2.10370136,-3.846409195000001,-0.440748686900001,0.0,1.0036,0.0
mp-8235,K4Si2P4,10,3,72,271.8800987056614,2.054963670686735,27.18800987056614,2.57292431,-8.363145136,-0.600256117690476,0.0,1.208699999999999,0.0
mp-571473,K16Sm16As16Se72,120,3,62,3460.4912770938936,4.757871925663888,28.837427309115785,2.52107684,-4.772393419416668,-1.272169414122917,0.0,1.2038,0.0
mp-555268,K4Sm4Ir2O14,24,6,167,360.3233377929955,6.296361835406317,15.01347240804148,1.98671427,-7.082006940416666,-2.484167529541666,1.0,0.2757,1.0
mp-555587,K4Sm2P4S14,24,4,5,698.7536160930132,2.447528637877668,29.11473400387555,1.25402256,-5.202225175833333,-1.303826042190475,0.0,2.2591,0.0
mp-10776,K2Sn1As2S6,11,6,147,294.9866986309344,3.034925657373443,26.81697260281221,2.09411868,-4.5428709690909095,-0.866260626318181,0.0,1.0089,0.0
mp-557121,K4Sn2Au4S8,18,5,2,522.2477198864116,4.572899649961282,29.01376221591176,1.48876854,-4.163261848888889,-0.8995381188333321,0.0,1.6433,0.0
mp-643371,K2Sn1H12N6,21,6,148,248.48649076549955,1.958286828787572,11.83269003645236,-0.26271824,-5.02921110952381,-0.408069441166666,1.0,2.4109,0.0
mp-18115,K4Sn4Hg6S16,30,3,41,896.5918122658569,4.348283674180082,29.88639374219523,1.21324962,-3.739496605666666,-0.784978218466667,0.0,1.7526000000000002,0.0
mp-8624,K4Sn4O6,14,0,199,291.8111207988129,4.13826984345966,20.843651485629493,3.35142753,-5.331857532857141,-1.742462365642854,0.0,1.3022,1.0
mp-8965,K4Sn4S10,18,4,15,483.4962558094525,3.269186103197366,26.86090310052514,2.14248176,-4.469461736666669,-1.027941626333334,0.0,1.406299999999999,0.0
mp-8966,K4Sn4Se10,18,4,15,551.9691977721258,4.274421553313418,30.664955431784765,1.78939918,-4.067375112777778,-0.982770607913194,0.0,0.8429000000000001,0.0
mp-1195395,K4Sn6Sb4S20,34,4,14,982.7928967245504,3.374144476813362,28.90567343307501,4.15174319,-4.599645605882353,-0.8388777726176461,0.0,1.816599999999999,0.0
mp-1024073,K8Sn12O28,48,3,62,708.3196972652514,5.123052156596727,14.756660359692738,3.43702626,-6.163111480208333,-2.08584630975,1.0,1.5671,1.0
mp-574040,K4Sn2Br12,18,4,14,606.5644005532896,3.70306395236049,33.698022252960534,-0.525158999999999,-3.332492979444445,-1.544271811611111,1.0,1.6124,0.0
mp-571453,K4Sn2Cl12,18,4,14,511.3788775240587,2.660249301784653,28.409937640225483,-0.58588062,-3.788990446666665,-1.859705102166665,1.0,2.6777,0.0
mp-568968,K2Sn1Hg1Se4,8,1,121,242.20797196969767,4.890521489869919,30.27599649621221,1.36335561,-3.5204261925,-0.9497225364218752,0.0,1.4785,0.0
mp-1223855,K2Sn1Hg1Te4,8,1,121,288.4529742645761,5.226494115988931,36.05662178307201,2.67611198,-3.1613810475,-0.7669801835833331,0.0,0.622799999999999,0.0
mp-752692,K8Sn4O8,20,5,2,435.80195156144936,3.4887990555691992,21.79009757807247,2.02062303,-4.917651388500009,-1.684004726400009,0.0,1.6021,1.0
mp-17730,K8Sn4O12,24,3,62,419.3559684925444,3.879033742714834,17.473165353856015,1.36444161,-5.47316678625,-1.9538010669999992,1.0,2.1547,1.0
mp-1120733,K4Sn2S6,12,5,2,364.2159657987095,2.67262669946739,30.35133048322579,2.90703575,-4.278650500000001,-1.1640854995,0.0,2.2443,0.0
mp-9693,K4Sn2Se6,12,5,2,407.48295678716335,3.535458766408358,33.95691306559694,0.56063359,-3.9125349899999993,-1.119194034421874,0.0,1.646,0.0
mp-29835,K8Sn4Te12,24,3,64,892.3487150574227,4.315019185762662,37.18119646072595,2.55681665,-3.508785627499996,-0.8917474640833291,1.0,0.9613,0.0
mp-28080,K4Sn2Te10,16,1,140,575.2469268912392,4.8201736035499145,35.95293293070245,3.56238029,-3.542100526249999,-0.793495430354165,0.0,0.536899999999999,0.0
mp-569413,K2Sr1Nb6Cl18,27,6,148,694.9876750916407,3.252824059877119,25.74028426265336,2.27010909,-5.54388663074074,-1.92030262424074,1.0,1.0688,0.0
mp-863758,K4Sr2Cd2Sb4,12,3,26,414.94284785211465,4.175911343884969,34.57857065434289,2.68519419,-2.86356695,-0.668036915749999,1.0,0.315199999999999,0.0
mp-7148,K2Sr1Ta2O7,12,1,139,178.29230150335826,5.95797116278066,14.857691791946522,1.53003698,-8.3402729825,-3.146543844513889,0.0,2.0748,1.0
mp-554684,K8Sr4V12O36,60,3,62,940.6812878844888,3.2666734773964032,15.678021464741478,1.89214946,-7.6633325435,-2.6140968908,1.0,2.214299999999999,1.0
mp-31360,K4Ta6Cl18,28,4,12,729.5880084001393,4.2794053252804805,26.05671458571926,2.20238669,-5.767783277142856,-1.8748970433214271,0.0,1.4543,0.0
mp-15216,K4Ta2Ag2S8,16,3,70,468.0386982782852,3.514323224917134,29.252418642392826,0.76323967,-5.4667788525,-1.276023485437499,0.0,2.4916,0.0
mp-8972,K4Ta2Cu2Se8,16,3,70,487.425128783492,4.350636619417393,30.46407054896825,1.07897132,-5.2091724675,-1.182607521401041,0.0,2.0288,0.0
mp-1201694,K8Tc36O108F44,196,4,14,3224.2614160527587,3.298483710533118,16.450313347207953,-1.64699589,-7.160277475561225,-2.055056797795919,0.0,2.6599,1.0
mp-1206472,K2Tc1Br6,9,0,225,283.354699732659,3.842123035880078,31.483855525851,-0.15913401,-3.899067916666665,-1.40517262772222,1.0,1.0368,0.0
mp-27632,K2Tc1Cl6,9,0,225,237.13934526539072,2.723326600013872,26.34881614059897,0.21847134,-9.890229431111113,-1.5662490636111102,1.0,1.142599999999999,0.0
mp-1091363,K2Tc1F6,9,6,164,131.7457771352701,3.657550871684084,14.638419681696677,0.14528115,-5.512438301111107,-2.83393911883333,0.0,1.7181000000000002,0.0
mp-573568,K4Tc2I12,18,4,14,730.4170034386445,4.263209403229302,40.57872241325803,1.35394801,-3.389677174999999,-0.971071166055554,0.0,0.7245,0.0
mp-1747,K2Te1,3,0,225,136.9551271112786,2.495220889363191,45.65170903709287,-0.14381336,-13.706588776666663,-1.222004715833333,0.0,2.141,0.0
mp-558216,K8Te4W12O48,72,4,14,1137.345306737128,5.544016705051381,15.79646259357122,0.68833986,-7.904496827916666,-2.145831934092592,1.0,2.8707000000000003,1.0
mp-29380,K16Te16As8,40,3,62,1534.7946245636251,3.534170953441122,38.36986561409064,1.7776252,-3.487735144250001,-0.8438403913166671,0.0,1.2765,0.0
mp-1206350,K2Te2Pd1,5,3,71,164.4284851583174,4.44164309934496,32.88569703166348,2.56793309,-18.11362217,-0.9473361494999972,0.0,0.2103,0.0
mp-8623,K2Te2Pt1,5,3,71,163.3031155243592,5.373826943977107,32.660623104871846,2.68098742,-23.835660958,-0.9639222794999992,0.0,0.7917000000000001,0.0
mp-7289,K8Te12,20,3,62,764.3436104596132,4.006066661089576,38.217180522980655,2.71375407,-18.5207381335,-0.863097973,0.0,0.5752,0.0
mp-29128,K8Te16O36,60,4,14,1027.231154657508,4.73699148212836,17.1205192442918,2.35046168,-5.637257542833334,-1.679416738577777,0.0,2.9189,1.0
mp-22963,K4Te2Br12,18,4,14,627.7611444407653,3.625058943565936,34.87561913559807,-0.5660199,-3.084988151666666,-1.39301875735185,0.0,2.336,0.0
mp-569149,K2Te1Cl6,9,0,225,261.16930038231163,2.660955335198884,29.018811153590185,0.29593751,-9.61997955888889,-1.356825606944444,0.0,2.5557,0.0
mp-27688,K4Te2I12,18,4,14,782.65583032034,4.104261957348686,43.48087946224111,0.95377421,-2.622683842222219,-1.006003727907404,0.0,1.7449,0.0
mp-773785,K8Te4O16,28,4,14,546.4367190122622,3.279456108673694,19.515597107580792,-0.6613988,-5.389119774642857,-1.789421294809523,0.0,2.7853,1.0
mp-29692,K8Te4S12,24,4,14,776.3993970767859,2.583561251969623,32.34997487819941,0.50655784,-11.134700144583334,-0.874908573072917,0.0,2.3419,0.0
mp-28419,K8Te4Se12,24,4,14,870.3526418537584,3.37831703068777,36.26469341057327,0.17636274,-3.591431635416666,-0.942468340116318,0.0,1.7896,0.0
mp-568203,K8Th4P12Se36,60,4,14,1680.1706544986907,4.403128159872631,28.002844241644844,1.90619576,-4.855524244,-1.029776139301487,0.0,1.7672999999999992,0.0
mp-1211474,K4Ti2Cu4S8,18,1,132,398.5077399150707,3.178635900751431,22.1393188841706,2.77683465,-5.151748867222222,-1.272850748092592,0.0,1.6735000000000002,0.0
mp-1223905,K2Ti1Te3O12,18,4,5,267.87813914792315,4.344510664358402,14.882118841551286,2.03804723,-6.373180356666666,-1.986309178768518,0.0,1.520099999999999,1.0
mp-8065,K2Ti6O13,21,4,12,267.29211015758693,3.562162097742717,12.728195721789854,1.30463654,-8.774083264285716,-3.347455425690477,0.0,2.7535,1.0
mp-27839,K2Ti1Cl6,9,0,225,235.9493248703152,2.384241116834958,26.21659165225724,-0.49022007,-4.540729016666666,-2.179674765314814,0.0,2.0826,0.0
mp-28766,K4Ti2S6,12,4,15,319.84299090960377,2.307814138044572,26.65358257580032,1.535680849999999,-5.367525643333333,-1.605307282555553,1.0,1.1215,0.0
mp-558075,K16U8Mo16O80,120,4,14,2263.5784311677626,3.920890291074151,18.863153593064688,-0.53031831,-8.196461128166666,-2.548123813133332,0.0,2.3125,1.0
mp-542317,K8U4W8O40,60,3,62,970.169398506774,5.777663598940295,16.169489975112903,0.67701765,-8.5852104885,-2.655209157466665,0.0,2.0582,1.0
mp-29361,K4U4O14,22,4,4,368.2281596698449,6.008962049142516,16.737643621356586,1.89857048,-8.732192773181817,-3.324803091318179,0.0,1.648299999999999,1.0
mp-556374,K2U3I4O20,29,5,2,478.548886764709,5.620929002581434,16.501685750507207,1.9846897,-7.036163758620703,-2.167465826362081,0.0,1.8921,1.0
mp-11887,K2U3Te2O14,21,5,2,373.4819720943983,5.65310764968826,17.784855814018965,1.97385675,-8.193767277619047,-2.874956071325395,0.0,1.8600999999999992,1.0
mp-558707,K8U4As8O36,56,3,59,999.635127081958,4.053614891711384,17.85062726932068,2.27564871,-7.266349169642858,-2.4502032006785712,1.0,2.4207,1.0
mp-28776,K8U4Br20,32,3,62,1051.574013365246,4.520930970117946,32.861687917663936,3.00740428,-4.619457666562504,-1.902097400250002,1.0,0.105799999999999,0.0
mp-28496,K8U4Cl20,32,3,62,899.4887505093183,3.644115706338091,28.1090234534162,3.84999299,-17.5757167725,-2.233121899375001,0.0,0.119899999999999,0.0
mp-3808,K2U1O4,7,1,139,124.03025951364324,5.090494292722964,17.718608501949035,1.5691352200000002,-7.823658391428572,-3.059945037785713,0.0,1.9773,1.0
mp-18935,K4V2P4O16,26,1,100,392.6170127832533,2.699048469137142,15.100654337817437,0.885329599999999,-7.420538145384615,-2.669670406445054,1.0,2.74,1.0
mp-1190373,K4V4Co2O14,24,1,113,421.16313378591695,2.767875143630947,17.54846390774654,-0.2465653,-7.447522929583332,-2.264214984541665,0.0,2.582,1.0
mp-16787,K4V6O16,26,1,100,414.064863638414,2.879551703362053,15.925571678400535,0.11123555,-7.760718541538462,-2.445476564961539,0.0,2.0466,1.0
mp-8900,K4V2Ag2S8,16,3,70,421.4864010184209,2.878095043621239,26.342900063651303,1.06052535,-5.031729399999991,-1.188851717020823,0.0,1.304999999999999,0.0