material_id,composition,nsites,crystal_system,space_group,volume,density,density_atomic,efermi,energy_per_atom,formation_energy_per_atom,is_gap_direct,band_gap,is_oxide
mp-1019089,K2Mg2As2,6,1,129,160.2895460635227,2.865987283319284,26.714924343920448,1.922067419999999,-3.139035448333333,-0.6617146915833331,0.0,1.1621,0.0
mp-1019105,K2Mg2Bi2,6,1,129,202.44358977636247,4.468442546930827,33.74059829606041,2.38715292,-2.6685370133333333,-0.451245664083333,1.0,0.385499999999999,0.0
mp-23737,K1Mg1H3,5,0,221,63.4304022052392,1.738989885084084,12.68608044104784,0.115656799999999,-2.9351239380000003,-0.3456561272,0.0,2.458,0.0
mp-1018737,K2Mg2P2,6,1,129,149.25533260165312,2.099982569603607,24.875888766942182,2.24438962,-3.35476738,-0.628996292297619,0.0,1.6589,0.0
mp-7089,K2Mg2Sb2,6,1,129,191.6846050640215,3.208091680058315,31.94743417733692,2.64009536,-2.929808336666667,-0.632861344083333,0.0,1.267199999999999,0.0
mp-555354,K2Mn2Se4O16,24,5,2,378.3460489484327,3.335170993016083,15.764418706184696,0.16299802,-6.2519197525,-1.512845084989044,0.0,0.037099999999999,1.0
mp-763541,K2Mn4O8,14,4,11,188.7890468955709,3.746491815091009,13.484931921112208,1.95516146,-7.571980308571428,-1.9652311190160088,0.0,0.319599999999999,1.0
mp-1016190,K4Mn12O24,40,4,15,576.9404426000683,3.452767739364122,14.423511065001708,1.68076839,-7.795889015,-1.965370852104309,0.0,1.198599999999999,1.0
mp-557389,K2Mn10Se12O36,60,4,15,920.6828441222532,3.879669142020933,15.34471406870422,2.26225289,-6.8886379736666665,-1.655964202365588,1.0,0.4471,1.0
mp-1200457,K2Mn12As14O48,76,4,11,1043.726555696563,4.063860708996031,13.733244153902143,3.37784386,-7.375496299736842,-1.913775685982531,0.0,1.3939,1.0
mp-1205353,K2Mn2F6,10,3,74,145.3773548581438,3.450245699508706,14.53773548581438,0.73037579,-6.223091586999999,-3.016103159036205,0.0,2.4058,0.0
mp-558116,K4Mn4F16,24,4,14,337.6040341264825,3.345237128457664,14.066834755270104,-1.555885379999999,-5.939839620833333,-2.948373868363506,0.0,2.1486,0.0
mp-1205906,K2Mn2I2O12,18,6,149,279.1281086083277,3.770932492545123,15.507117144907092,0.50038834,-6.069747322777777,-1.4580624716867812,0.0,1.9674,1.0
mp-1029804,K16Mn16N32,64,3,61,998.0406370968172,3.249060001895016,15.59438495463777,2.93582903,-7.19517121828125,-0.452686092076509,1.0,0.0642,0.0
mp-554900,K12Mn12O24,48,4,11,709.7882964547293,3.538287961339087,14.787256176140197,1.22892932,-6.9933597272916685,-1.9460329710869264,0.0,1.882899999999999,1.0
mp-555605,K4Mn4P4O16,28,5,2,442.179739511131,2.8391593129887003,15.792133553968965,1.94926564,-7.665037450357143,-2.593508513189127,1.0,1.3002,1.0
mp-1298569,K2Mn2Sn6O16,26,5,1,344.39156342351777,5.575396927465809,13.245829362442992,4.47353054,-6.8426650703846175,-2.080681330398542,1.0,0.8738999999999991,1.0
mp-541350,K4Mo4P8O32,48,4,14,686.6462964702117,3.143648711307558,14.305131176462744,0.61914325,-7.719908899375,-2.520604322419642,0.0,2.4449,1.0
mp-1211413,K1Mo2P4O14,21,5,2,295.3139591347202,3.25493540249776,14.062569482605724,1.94160803,-7.9727054623809535,-2.555752218848639,0.0,1.1436,1.0
mp-531064,K8Mo24Br56,88,3,48,2918.751625199573,4.033632984934998,33.167632104540594,3.09771838,-5.326148402840909,-1.223698784863636,0.0,2.3107,0.0
mp-556136,K4Mo4I4O24,36,4,14,593.5952211073197,4.005234234484638,16.48875614186999,0.56183938,-6.432275421111111,-1.633520034694444,1.0,2.9911000000000003,1.0
mp-29200,K4N4O8,16,4,14,281.6828932181055,2.00676985388234,17.605180826131594,-0.99175183,-6.128853745,-1.287461375562499,0.0,2.5518,1.0
mp-5158,K4N4O12,20,3,62,306.24942598800067,2.192798406941028,15.312471299400034,-1.25544897,-6.2848446935,-1.4221385969499991,0.0,2.9384,1.0
mp-559067,K2Na4Au2O4,12,3,58,225.4642486533492,4.625842171150856,18.78868738777909,0.8716093300000001,-4.143796704166666,-1.313027489168102,0.0,2.0479,1.0
mp-1019888,K1Na2B1N2,6,1,139,94.3060654457998,2.181667813151634,15.717677574299964,1.63765743,-5.146985715,-0.6185259581958811,0.0,1.581799999999999,0.0
mp-8263,K2Na4B2O6,14,3,59,184.14503124951625,2.595020317246689,13.153216517822589,1.12999384,-5.876978065000001,-2.257251484167899,0.0,2.798499999999999,1.0
mp-545359,K1Na2Cu1O2,6,1,107,105.47669337065447,2.8435755621127363,17.57944889510908,1.46231882,-4.303283638333333,-1.334960311668102,0.0,1.5144000000000002,1.0
mp-17785,K4Na8Ga4O12,28,3,62,403.29781660799904,3.340020325724922,14.40349345028568,0.52359417,-5.024765298928562,-1.926652396429793,1.0,2.5055,1.0
mp-15724,K1Na2Sb1,4,0,225,114.33950763074156,3.003881322361405,28.584876907685388,2.22797509,-10.2940269125,-0.580791710937498,1.0,0.672099999999999,0.0
mp-1223632,K8Na16W8N24,56,3,29,962.5845399182596,4.2911521875121394,17.18900964139749,1.6826615500000002,-6.565141902321429,-0.595459795894088,0.0,2.029499999999999,0.0
mp-1205067,K8Na32Fe8O32,80,3,61,1159.6653183683245,2.874134164177733,14.495816479604054,0.85776401,-5.100370358500008,-1.624358551776732,1.0,2.0784,1.0
mp-14428,K8Na32Ga8O32,80,3,61,1217.9434926425752,2.887977497406673,15.22429365803219,0.327046699999999,-4.735818146624999,-1.803998858651723,1.0,2.3967,1.0
mp-16921,K4Na16Ge4As12,36,3,62,976.9323429304764,2.913111389204486,27.13700952584657,1.502521419999999,-3.183976664722222,-0.39157129919636,1.0,0.6988000000000001,0.0
mp-556521,K4Na28Pb8O28,68,4,14,1157.9732047490224,4.166773152213561,17.02901771689739,1.70263312,-4.664383699264706,-1.571181561141479,0.0,0.925199999999999,1.0
mp-559242,K4Na4Mn4O8,20,3,66,327.2017276166455,3.02518808639771,16.360086380832275,2.29785671,-5.984614904,-1.678409343312068,0.0,0.274499999999999,1.0
mp-28383,K4Na4S4,12,3,62,298.2413766636039,2.096890130118769,24.853448055300323,0.65054934,-7.158000004166666,-1.285518808020832,1.0,2.4851,0.0
mp-28595,K4Na4Se4,12,3,62,334.72895336122485,2.798871468464669,27.89407944676874,0.32915487,-3.230276840833335,-1.240609514491021,1.0,2.0175,0.0
mp-8755,K4Na4Te4,12,3,62,408.2861253233253,3.085918721905412,34.02384377694378,1.03597546,-12.8798205475,-1.213264275416667,1.0,1.9491,0.0
mp-557183,K2Na2Zn2O4,10,4,15,157.3862898158647,3.365593308167173,15.73862898158647,0.68815353,-4.35286862,-1.6271173957258611,1.0,1.7792,1.0
mp-567177,K2Nb2Ag4Se8,16,3,40,510.07341630102223,4.32056355803623,31.87958851881389,0.7160299,-4.7570131225,-0.894238618744791,0.0,1.458999999999999,0.0
mp-1106233,K2Nb2Cu4S8,16,3,40,378.5739193948344,3.398125792060315,23.660869962177152,2.51727437,-5.580285210625,-1.082219414031248,0.0,1.7079,0.0
mp-6599,K2Nb2Cu4Se8,16,3,40,429.1651416646495,4.4491256408113,26.82282135404059,1.93821768,-5.1417053975,-0.964863645828124,0.0,1.4228,0.0
mp-1223649,K4Nb8P8S48,68,3,73,1748.3658814586313,2.551598882580447,25.71126296262693,2.65130545,-5.80410866117647,-0.990859151560922,1.0,0.001399999999999,0.0
mp-1192824,K2Nb4Cl22,28,5,2,807.3124998105718,2.529517649460068,28.832589278949,-1.22421733,-4.806040959285714,-1.8297587733749991,1.0,2.1197,0.0
mp-542972,K4Nb8P4S40,56,3,29,1442.871587334414,2.6540368625732462,25.765564059543102,2.66388477,-5.938557706607143,-1.071911349242346,0.0,1.4962,0.0
mp-1202434,K4Nb12Se8O48,72,3,57,1085.106311573517,4.08731250622745,15.07092099407662,2.75253316,-7.847464029722222,-2.41398403760764,0.0,2.3298,1.0
mp-1202170,K4Nb12Te8O48,72,3,57,1109.6312803873006,4.579284713118945,15.411545560934732,3.77087982,-7.889900647499999,-2.495599053643518,0.0,2.4149000000000003,1.0
mp-27998,K2Nb6O16,24,3,63,369.6846837346525,4.004976877188869,15.403528488943854,-0.27757561,-8.905206614166666,-2.986958873937498,0.0,2.4752,1.0
mp-1223401,K2Nb8As2O26,38,3,36,571.5192064226403,4.030703966304419,15.039979116385272,2.58358036,-8.595934888157895,-2.778555652355265,0.0,2.4151,1.0
mp-2205912,K2Nb2Cl12,16,3,31,493.2075415469863,2.321235703280572,30.825471346686644,0.72998696,-10.056756331875,-1.598384835468749,1.0,2.3707000000000003,0.0
mp-675801,K2Nb2Cl12,16,4,4,559.4151276594331,2.04651411440392,34.96344547871457,-2.03711175,-4.6829819475,-1.89249050215625,0.0,2.2072,0.0
mp-1029504,K16Nb16N32,64,3,61,1201.631883942806,3.538072206678848,18.775498186606345,1.10610156,-7.90944998046875,-0.93214241728125,1.0,2.0136,0.0
mp-7375,K1Nb1O3,5,6,160,66.42558683114697,4.499799378518349,13.285117366229397,1.18912488,-8.067439236000002,-2.852127680450001,0.0,2.2934,1.0
mp-11603,K2Nd4Cu2S8,16,3,63,398.3728420150508,4.32993654146924,24.89830262594068,3.12262457,-5.7888467875,-1.873808096531248,0.0,0.9129,0.0
mp-669359,K4Nd12Te32,48,4,14,1640.1591172656154,6.044684167079109,34.16998160970032,4.41405338,-26.13911280958333,-1.338272362604167,0.0,0.439899999999999,0.0
mp-861866,K2Nd2Ge2S8,14,4,4,379.502087165332,3.362542925009716,27.10729194038085,1.75383367,-5.408211560714285,-1.540213949249998,0.0,2.367099999999999,0.0
mp-1006885,K1Nd1S2,4,6,166,111.40649386181222,3.688600966860526,27.851623465453056,1.42509183,-15.0032191125,-2.12665134171875,0.0,2.2595,0.0
mp-11740,K1Nd1Te2,4,6,166,151.60938300775314,4.803220526207431,37.902345751938284,2.529942649999999,-23.25272294,-1.685042555312502,0.0,1.2648,0.0
mp-11010,K2Nd2Te8,12,1,125,430.3145400363353,5.354143367442484,35.85954500302794,4.38862248,-23.9890245425,-1.138162849375002,0.0,0.157099999999999,0.0
mp-1211538,K4Nd4Ti4O16,28,3,57,399.9627583863219,4.902449128808791,14.284384228082926,4.1873499,-8.147123980357142,-3.349002095797618,0.0,2.360699999999999,1.0
mp-27366,K6Ni6Cl18,30,2,185,715.0760800661986,2.844454364567921,23.83586933553996,1.44222778,-8.760471230666667,-1.469011672916667,0.0,0.702299999999999,0.0
mp-550959,K1Ni1I1O6,9,6,149,133.5624281002173,3.987068432551869,14.840269788913032,0.5775035900000001,-5.300103723333333,-1.064183162472221,0.0,1.751799999999999,1.0
mp-662530,K4Ni4P4S16,28,1,136,775.3440536895229,2.201865449181975,27.690859060340102,1.84993698,-5.031156701428571,-0.905382673127549,0.0,0.9783,0.0
mp-1211682,K4Np8F36,48,3,62,684.7707630909633,6.63549409427526,14.26605756439507,3.06810919,-7.432435906666664,-3.744802534979164,0.0,0.2835,0.0
mp-16866,K2Np2N6O22,32,6,167,498.5428640549668,3.291560290300665,15.579464501717712,0.71197913,-7.4672090121875,-1.6221119063125,0.0,0.098199999999999,1.0
mp-7984,K1Os1F6,8,6,148,115.61461347852912,4.930986908783361,14.45182668481614,-1.09493261,-5.45272715625,-2.472495730906249,1.0,1.3498,1.0
mp-7441,K8P8,16,3,19,447.6799113986769,2.079296273351812,27.979994462417302,2.39110254,-8.04675768125,-0.536587557113094,1.0,1.034999999999999,0.0
mp-1211471,K2P30,32,5,2,769.1628545693718,2.174887612492646,24.03633920529287,4.6180045100000005,-8.9389266340625,-0.123338595524552,0.0,1.5227,0.0
mp-561218,K4P8Au20S32,64,4,14,1748.4041547598354,5.099748651952928,27.318814918122428,2.33332287,-4.40089882625,-0.5609861191584811,0.0,1.6577000000000002,0.0
mp-862850,K2P2Au2Se6,12,4,12,345.26148025520854,4.847204921583292,28.77179002126738,1.6061454,-4.084208860833333,-0.6994655806540171,0.0,0.993699999999999,0.0
mp-638150,K4P4Pb4S16,28,3,62,754.06652371792,3.57210835134094,26.93094727564,2.40372437,-4.784940724999999,-0.954522355270406,0.0,2.316599999999999,0.0
mp-866637,K4P4Pd4S16,28,1,136,824.4380049058306,2.4552614099138133,29.44421446092252,1.03246303,-4.96593157107143,-0.925908238484692,0.0,1.477,0.0
mp-8267,K2P2S6,10,3,71,264.3180621637443,2.0890963688192112,26.43180621637443,1.29029314,-4.749104455999995,-0.9567200658785652,0.0,1.7149,0.0
mp-569702,K24P24Se72,120,6,144,3731.404010154259,3.278374933214612,31.09503341795216,1.15369372,-4.206666757833333,-0.799751221618154,1.0,1.4182,0.0
mp-18625,K4P4Se24,32,3,29,944.170638694595,3.825810071235391,29.50533245920609,1.26339132,-4.122011197812499,-0.681722183556918,1.0,1.9067,0.0
mp-21526,K16Pb16,32,1,142,1281.2615838509246,5.107315531405211,40.03942449534139,2.70175683,-31.5138882703125,-0.362189247187497,0.0,0.5708000000000001,0.0
mp-28574,K8Pb8O16,32,5,2,566.1103345075451,6.530503734025406,17.690947953360784,2.4391483943285603,-5.253928936874999,-1.568944236187498,0.0,1.4532,1.0
mp-1095520,K2Pd4O6,12,6,166,199.44843139644027,4.994336353132734,16.62070261637002,1.6859818400000002,-5.524383340833329,-1.135213947874995,0.0,0.2648,1.0
mp-1211534,K4Pr4P8Se24,40,4,14,1121.1403662539526,4.240219047825452,28.02850915634881,4.0207386,-4.86467293175,-1.091347221976488,1.0,2.0113,0.0
mp-567710,K4Pr12Te32,48,4,14,1663.4728391264073,5.920025740580766,34.65568414846682,4.34243341,-26.142215087083333,-1.344887793645834,0.0,0.4675,0.0
mp-1223605,K2Pr10C4Cl20,36,2,173,977.8711662976956,3.811211528197319,27.163087952713763,2.835175109999999,-5.652146114444445,-2.204841336699074,0.0,2.1273,0.0
mp-2911857,K2Pr10C4Cl20,36,2,173,945.476137342491,3.941795794615073,26.263226037291417,3.24771651,-15.16002670222222,-2.134339821226848,0.0,2.2493,0.0
mp-568343,K4Pr24Os4I40,72,3,62,3144.917095589962,4.950213605240145,43.67940410541615,3.5580145400000003,-4.57074162513889,-1.438980955541667,1.0,0.002499999999999,1.0
mp-12012,K2Pr2Ge2Se8,14,4,4,437.57656534169297,4.314642069787594,31.25546895297807,1.17926539,-4.9126264,-1.407838550470237,0.0,1.6332,0.0
mp-15782,K1Pr1S2,4,6,166,113.40497648238076,3.574775068177798,28.35124412059519,1.38579779,-14.98434856,-2.111293942760417,0.0,2.2688,0.0
mp-13538,K2Pr2Si2Se8,14,4,4,425.7589780218607,4.08685987075398,30.41135557299005,1.501272629999999,-5.128918387142856,-1.509517655470237,0.0,2.1773,0.0
mp-5273,K1Pr1Te2,4,6,166,153.50646455574142,4.707791845009544,38.37661613893536,2.46391478,-23.248327845,-1.684160613854167,0.0,1.279999999999999,0.0
mp-11132,K2Pr2Te8,12,1,125,432.571830193166,5.300604300914084,36.047652516097166,4.40613219,-23.9890727225,-1.140553131736112,0.0,0.176299999999999,0.0
mp-30533,K2Pt4S6,12,6,166,279.0631147628836,6.253417026308305,23.25525956357363,2.70490192,-22.984929023333333,-0.8018131928645811,1.0,1.273899999999999,0.0
mp-14796,K2Pt4Se6,12,6,166,310.59163348608075,7.12293465735365,25.88263612384006,2.36525427,-4.836509836666667,-0.8762813707135411,1.0,0.9439,0.0
mp-1211482,K4Pu8F36,48,3,62,675.9499466440517,6.859653684673981,14.08229055508441,2.13154798,-7.614284897916664,-3.628292726229161,1.0,0.308899999999999,0.0
mp-561433,K2Pu2C2O10,16,2,194,241.01784727463257,5.168730649280994,15.063615454664536,3.33353649,-8.8609316725,-2.631210082312497,0.0,0.434299999999999,1.0
mp-510007,K4Pu4P8S28,44,4,14,1106.180374313375,3.419617229422965,25.140463052576703,4.02770455,-6.1321976025,-1.071400672753244,0.0,0.0066,0.0
mp-1206427,K1Rb2Cu1F6,10,0,225,176.79329320108815,3.64027189286087,17.679329320108813,-1.40625526,-4.431940112,-2.5644642332250003,0.0,0.8802000000000001,0.0
mp-1205717,K1Rb2Mn1F6,10,1,139,185.203248571038,3.397790348606249,18.5203248571038,-1.06311945,-5.345922172,-2.972165431018103,0.0,1.704699999999999,0.0
mp-14036,K1Rb2Rh1F6,10,0,225,187.4896632491124,3.781187886268344,18.74896632491124,-0.02191313,-4.81932312,-2.625337121225,1.0,2.1662,0.0
mp-8013,K1Ru1F6,8,6,166,118.13391591913404,3.572559828098121,14.766739489891751,-1.89687107,-5.17410361125,-2.437992797156249,1.0,1.1302,0.0
mp-1287,K6S6,12,2,189,366.8753970696398,1.932581590949447,30.57294975580332,0.84383388,-8.125630696666667,-1.098999187447916,0.0,1.469,0.0
mp-1196514,K8S24,32,4,14,903.072089486542,1.990182734819924,28.221002796454435,1.29984238,-8.14850550625,-0.617690210546874,0.0,1.8888999999999991,0.0
mp-1536,K8Sb8,16,4,14,618.1228513850983,3.457066707542885,38.632678211568646,2.43856309,-16.43342724125,-0.571137408125,0.0,0.8246000000000001,0.0
mp-554155,K1Sb1P2O8,12,6,148,175.79638916325638,3.313599373274487,14.649699096938033,0.9463665,-7.096495520833333,-2.456911683044642,0.0,2.955899999999999,1.0
mp-556609,K2Sb2P4S12,20,4,4,527.1175663596453,2.615920735871572,26.355878317982263,2.14741628,-4.866345123,-0.7741975811535701,1.0,2.2731,0.0
mp-7123,K2Sb2P4Se12,20,4,4,598.3770647382606,3.866039764463122,29.91885323691303,1.78876371,-4.3486507115,-0.6419720235598211,0.0,1.8059,0.0
mp-29055,K2Sb4,6,4,12,216.3583998787304,4.338160462908972,36.05973331312173,3.85547746,-19.53525216333333,-0.391620364583332,0.0,0.2153,0.0
mp-556756,K4Sb8P4O32,48,4,15,655.1720459402287,4.476826533779351,13.649417623754765,2.06908172,-6.75116082875,-2.218783014741071,0.0,2.3727,1.0
mp-757115,K2Sb10O26,38,3,40,518.8119112221283,5.47882414123413,13.65294503216127,3.67796576,-6.421229055,-1.889657003013157,1.0,1.047899999999999,1.0
mp-15559,K4Sb20S32,56,4,7,1511.7222250925602,3.973803903309034,26.99503973379572,3.51860905,-14.662209707857144,-0.460078619017855,1.0,1.591599999999999,0.0
mp-1211377,K2Sb2Cl12,16,4,15,448.970138735444,2.763382180619438,28.06063367096525,1.37117232,-9.753345533125,-1.173443901718748,1.0,2.0845,0.0
mp-10417,K2Sb2O4,8,4,15,149.56743644713066,4.282305780301104,18.695929555891333,2.61949956,-5.67052968125,-1.8814564380624992,0.0,2.011,1.0
mp-547792,K2Sb2O6,10,6,148,153.64624010469555,4.514453166273659,15.364624010469557,1.49502496,-6.069977969000001,-2.04912717345,0.0,2.6808,1.0
mp-11703,K2Sb2S4,8,4,15,238.9857669027302,3.126561606741884,29.87322086284128,2.10617461,-12.8010312,-0.8523867423437501,0.0,1.601,0.0
mp-9576,K4Sb4Se8,16,4,13,532.3938582658552,3.977084352239109,33.27461614161595,1.57952817,-3.994612053124999,-0.931563573609373,0.0,1.1298,0.0
mp-1223347,K2Sb2W2O12,18,3,46,281.6619638406832,5.196234207949289,15.647886880037955,3.90570922,-7.471966192777777,-2.149047612472221,0.0,2.8241,1.0
mp-9268,K6Se6,12,2,189,418.7520947407349,2.80892329970684,34.89600789506124,0.400119699999999,-3.48159502,-1.167954419796875,0.0,0.7039000000000001,0.0
mp-726032,K2Se6,8,4,5,293.278708700202,3.125168892858938,36.65983858752525,0.86957045,-3.70046917125,-0.795693132320312,0.0,0.7469999999999991,0.0
mp-1217,K32Si32,64,0,218,2011.6367627018603,1.774655569810547,31.431824417216568,1.999820559999999,-7.5333215390625,-0.1373072734375,0.0,1.3548,0.0
mp-866651,K4Si4Bi4S16,28,4,14,727.5168453239022,3.692352626031423,25.98274447585365,2.245589009999999,-15.9726665825,-0.910623924642858,0.0,2.0549,0.0
mp-28695,K4Si4H12,20,3,62,319.757399910416,1.458386837216834,15.9878699955208,0.34475498,-5.219501882,-0.188028735,0.0,2.5733,0.0
mp-14721,K8Si8Sb8O40,64,3,33,936.266278855909,3.815894816148872,14.62916060712358,1.64426218,-6.965628773125,-2.53744202090625,0.0,2.8079,1.0
mp-11604,K2Sm4Cu2S8,16,3,63,386.512471471751,4.567940152318723,24.15702946698444,3.10880749,-5.79226353125,-1.889615164656249,0.0,1.013,0.0
mp-567322,K4Sm8Sb12Se32,56,3,62,1583.1201015164045,5.608601870210372,28.270001812792938,3.77800459,-4.884626085,-1.247280546857142,1.0,0.6252999999999991,0.0
mp-11634,K2Sm2Ge2Se8,14,4,4,428.2645494190671,4.481758420285739,30.59032495850479,1.48010023,-4.896058261428571,-1.4022540295178572,0.0,1.6626,0.0
mp-554581,K4Sm4P8S28,44,4,14,1090.5396297971702,2.898328375882804,24.784991586299324,2.02358822,-5.369553266136363,-1.219606004230518,1.0,2.6804,0.0
mp-15783,K1Sm1S2,4,6,166,108.43211238297596,3.883473905731944,27.10802809574399,1.54744585,-5.63568089,-2.104012141812499,0.0,2.2759,0.0
mp-1006891,K1Sm1Se2,4,6,166,121.13091030313562,4.76208126064221,30.282727575783905,1.23933783,-5.1922377275,-1.981793024234375,0.0,1.8906,0.0
mp-9036,K1Sm1Te2,4,6,166,147.95289964826867,4.990591466563279,36.98822491206717,2.5808057,-23.324605565,-1.6781963459375,0.0,1.2623,0.0
mp-542374,K16Sn16,32,1,142,1228.855549246432,3.411914083401286,38.401735913951,2.61104551,-2.851468627499999,-0.280997838624998,0.0,0.7321000000000001,0.0
mp-3481,K2Sn2As2,6,2,186,190.64609280796589,4.054183174949009,31.774348801327648,3.28889822,-3.656096675,-0.385741971583333,0.0,0.335199999999999,0.0
mp-15107,K8Sn8As8O40,64,3,33,1041.6832262259525,3.988124002020327,16.276300409780507,1.40676448,-6.34495834765625,-2.026099705750001,1.0,2.2533,1.0
mp-554119,K4Sn4As4S20,32,3,55,867.7988521539961,3.008453007968412,27.11871412981238,2.71998241,-4.613766994687499,-0.800909251218747,0.0,1.8064,0.0
mp-1223442,K8Sn8Au8Se24,48,1,103,1486.3556362407762,5.287918987697528,30.96574242168284,1.7741183,-3.9720669691666672,-0.821640634046874,1.0,1.4172999999999991,0.0
mp-1097015,K4Sn4I12,20,3,62,836.2062838205491,4.277587265101873,41.81031419102745,3.87968881,-3.066696506500002,-1.124100621950002,0.0,1.9381,0.0