material_id,composition,nsites,crystal_system,space_group,volume,density,density_atomic,efermi,energy_per_atom,formation_energy_per_atom,is_gap_direct,band_gap,is_oxide
mp-1190030,La6Sb8Au6,20,0,220,531.1001257137948,9.34639158699297,26.55500628568974,7.37456408,-5.073759053999998,-0.9591918264999992,0.0,0.5747999999999991,0.0
mp-1104307,La6Sb2O6,14,4,12,310.0465078005047,6.282051092158205,22.14617912860748,8.49736046,-7.998697727142859,-3.172854074285716,0.0,0.7208999999999991,1.0
mp-1211549,La12Sb4O28,44,3,62,675.7369165897564,6.393816823824024,15.357657195221735,5.55216211,-8.241538868636363,-3.37128890590909,1.0,2.812900000000001,1.0
mp-560523,La6Si4S16Br2,28,4,15,689.6359884044637,3.897398731929145,24.629856728730847,4.2723382,-6.221707756785714,-1.9072448675,0.0,2.552,0.0
mp-556246,La6Si4S16Cl2,28,4,15,678.2461705001168,3.745190600528349,24.22307751786132,4.31444645,-6.2654264428571445,-1.935849534642859,1.0,2.6154,0.0
mp-23090,La6Si4S16I2,28,4,15,704.3642806556176,4.037511182736749,25.155867166272056,4.61274093,-6.163851481071428,-1.857455300357142,0.0,2.507,0.0
mp-1019893,La6Si12N22,40,1,100,503.81815365793386,4.873352368511046,12.595453841448348,7.24663818,-13.68518648925,-1.5705272108125,0.0,2.9659,0.0
mp-17719,La6Si2Ag2S14,24,2,173,556.6065543573194,4.63683582124118,23.191939764888307,5.31582187,-6.23421192125,-1.8971457549305544,0.0,1.9663,0.0
mp-6485,La6Si2Ag2Se14,24,2,173,632.1664101775979,5.807152774765752,26.34026709073325,4.69568614,-5.681573627083334,-1.719268846506076,0.0,1.6531,0.0
mp-1194197,La12Si4N16F4,36,3,62,529.3011481927869,6.523267386014438,14.702809672021855,8.13757459,-8.181531475277776,-2.014831175277778,0.0,1.9716,0.0
mp-1198669,La12Te16Br4,32,3,62,1052.316491814316,6.356250214364645,32.88489036919737,6.66496257,-5.580079650312502,-1.952805722395835,1.0,0.0537,0.0
mp-554303,La6U2Cl6O12,26,2,176,451.59939762565375,6.303149371119259,17.369207600986684,5.47000548,-8.325936402692308,-3.608026729230769,1.0,1.577199999999999,1.0
mp-673814,La6U4O20,30,5,2,427.2536712591083,8.183254546829437,14.241789041970277,8.04876907,-9.703220831333336,-3.911857405666667,0.0,0.1081,1.0
mp-1194534,La6V2H6O16,30,4,11,385.06542139360175,5.1634157486241214,12.835514046453392,5.01955086,-7.811053101333333,-2.900312118583333,0.0,2.2922,1.0
mp-1223194,La8As4S12O6,30,3,45,689.344184303731,4.556871178359624,22.97813947679104,4.68620814,-6.947673874666666,-2.363786281,0.0,1.912199999999999,1.0
mp-9160,La16Au8O36,60,3,60,929.6978450125982,7.81278292381069,15.494964083543303,5.11463361,-7.562714216833332,-2.8411514525,1.0,1.8922999999999992,1.0
mp-1211788,La16C4I24N4,48,1,136,2012.9538654502144,4.431723481307497,41.93653886354614,3.21318219,-5.565804271458334,-1.694550325833335,0.0,1.1841,0.0
mp-1196663,La32In8Sb8S72,120,1,92,3058.8233614247547,4.693793145334563,25.490194678539623,5.33577758,-6.16634561875,-1.907849651361111,0.0,2.2196,0.0
mp-560796,La4Mn1Cu6S10,21,5,2,405.2297474671834,5.378267924423869,19.29665464129445,6.98551328,-14.72074189047619,-1.430588446790845,0.0,1.038699999999999,0.0
mp-18292,La8Mn2S12O2,24,2,186,537.5439950901946,5.059669013696348,22.39766646209144,6.10286562,-7.350770060833334,-2.460423217327586,0.0,2.3212,1.0
mp-2767430,La4Pt1O7,12,4,8,186.71342971764847,7.672452081394361,15.559452476470703,7.2459339,-20.921817965,-3.234319605833332,0.0,0.9344,1.0
mp-556958,La8S6N4,18,3,58,428.8725942844584,5.264429360337543,23.826255238025468,6.20392749,-20.155365757777776,-2.228519156770832,0.0,1.1943,0.0
mp-559256,La8S6N2Cl6,22,2,186,543.7241374853946,4.716506964609137,24.7147335220634,5.12743511,-6.74536809909091,-2.559639620227273,0.0,2.9165,0.0
mp-1205351,La8Se6N4,18,4,15,459.0867789895274,5.935686844135055,25.504821054973743,5.28133036,-7.318708523888887,-2.106673152447916,0.0,1.657699999999999,0.0
mp-4412,La4Se3O4,11,3,38,232.0095319763418,6.130139718602654,21.09177563421289,5.88861057,-7.803638065454547,-3.256037440639207,0.0,1.3261,1.0
mp-15897,La16Si8S12O28,64,1,141,1078.12507775302,5.051788378588689,16.845704339890936,6.37296685,-8.176235937187501,-3.323394048593751,0.0,2.5019,1.0
mp-14912,La16Si8Se12O28,64,1,141,1130.124127863576,5.646204107560204,17.658189497868374,6.06346278,-7.9946070434375,-3.262224171689453,0.0,2.2305,1.0
mp-641010,La16Te12N8,36,3,62,1044.5368044447914,6.145512655759488,29.01491123457754,6.664519999999999,-6.973612454999998,-1.8791122783333312,0.0,0.8813000000000001,0.0
mp-1223217,La8Ti6S8O16,38,4,5,614.809717179527,5.161299943008752,16.179203083671762,5.83182588,-8.504127698421053,-3.263726078421053,1.0,0.6467,1.0
mp-569576,La20Si12N36,68,3,64,976.8000765397012,6.152862172501688,14.36470700793678,8.11385044,-16.76134318602941,-1.6316990183088231,1.0,1.965199999999999,0.0
mp-1185199,La10Al4Ru6,20,0,199,496.2083251169289,7.038937306479015,24.81041625584644,8.17971071,-6.4549328405,-0.455493359999999,0.0,0.0059,0.0
mp-29070,La20C8Br36,64,3,62,1907.4424382535824,5.006351216586854,29.803788097712225,4.34668202,-5.6174736846875,-2.000605851875,0.0,1.8211,0.0
mp-619791,La10C4Cl18,32,5,2,795.8341246532757,4.330093523284892,24.869816395414865,6.32828609,-6.036954064374999,-2.3010633325,0.0,1.6562,0.0
mp-571432,La40C16I72,128,3,61,5175.653946346577,4.77581658142058,40.43479645583263,4.73447892,-5.104572930625,-1.5512304278125,1.0,1.5131,0.0
mp-1224631,La40Se48N8,96,4,9,2642.179277573183,5.944321719264883,27.522700808053987,5.55491504,-6.748855357187499,-2.249373512526041,1.0,1.588099999999999,0.0
mp-37829,La5Tl1Se8,14,1,82,385.6909876306893,6.58974580897221,27.54935625933495,5.85629195,-6.061291300714283,-2.131377053363095,0.0,1.300399999999999,0.0
mp-35907,La5Tl1Te8,14,1,82,469.2228185369663,6.793690342751184,33.515915609783306,7.23603219,-5.446872235000037,-1.7184468929762282,0.0,1.211599999999999,0.0
mp-1223157,La6Cd1Si2S14,23,6,143,545.3795800179767,4.417688953866145,23.712155652955506,5.20285317,-6.323140190869565,-2.002978328913043,1.0,1.946899999999999,0.0
mp-1200333,La24Co4Cl44,72,1,86,1885.9179282688008,4.516401492355984,26.193304559288897,6.23128282,-16.672109388055556,-2.262123819583334,0.0,0.631699999999999,0.0
mp-1223466,La6Mg1Ge2S14,23,6,143,548.7822109711776,4.393332762602976,23.860096129181635,5.03139795,-6.268693672608697,-1.989145746521739,0.0,2.008599999999999,0.0
mp-1223141,La6Mg1Si2S14,23,6,143,541.1410520523092,4.18192979949516,23.52787182836127,5.29862965,-6.433143816956522,-2.083831527826087,0.0,1.9699,0.0
mp-1223191,La6Mn1Si2S14,23,6,143,540.6964978876545,4.279445619305464,23.50854338641976,6.04368946,-6.690871720434782,-2.014100940997001,0.0,1.1259,0.0
mp-31322,La6Os1I10,17,5,2,746.7909142370244,5.097987043853152,43.92887730806026,4.72212944,-4.86281759647059,-1.5637860547058842,0.0,0.0879,1.0
mp-1223425,La12S6O4F16,38,4,6,661.5179408696101,5.590775945682024,17.40836686498974,7.9733726,-7.44863927131579,-3.909804411184211,1.0,2.6035,1.0
mp-559994,La24S16Br4N12,56,3,62,1342.3872636986916,5.361755962823712,23.97120113747664,5.94152001,-7.420147952500001,-2.2186293332142872,0.0,1.4091,0.0
mp-1223262,La12Sb8S6O24,50,1,122,922.6833055470552,5.790163945422656,18.453666110941104,8.3453657,-7.598027529200001,-2.8811211951000013,1.0,1.957899999999999,1.0
mp-1223361,La6Si2Ni1S14,23,6,143,533.0659420050562,4.352401813964648,23.17678008717636,5.80887481,-6.501578800434783,-1.971846221521738,0.0,0.9031,0.0
mp-19992,La6U1O12,19,6,148,315.59230277800435,6.647866844247905,16.610121198842336,4.99692121,-9.217710924736844,-3.939659098421054,0.0,1.972799999999999,1.0
mp-1223149,La6Zn1Si2S14,23,6,143,538.2193600433737,4.331447105346356,23.40084174101625,5.23913908,-6.344439614782608,-2.011245865,0.0,1.9847,0.0
mp-555890,La28Ru12O72,112,6,167,1609.7769391435847,6.451366077141019,14.37300838521058,6.19286435,-8.424244422589286,-3.015724585267859,1.0,0.405199999999999,1.0
mp-1202486,La28Ru12,40,3,62,1191.4783491701469,7.110822511731111,29.78695872925368,7.96139759,-6.518327621,-0.280801885500001,0.0,0.044599999999999,0.0
mp-570305,La28Sb44Br16,88,3,62,2702.8710566187483,6.466309466518017,30.71444382521305,6.81516639,-5.318458287727273,-1.385783309772727,0.0,0.014199999999999,0.0
mp-1195582,La32Sb8S60,100,1,110,2564.341926855344,4.754928966575054,25.64341926855344,7.22930955,-6.505227304099999,-2.112369190799999,1.0,1.935799999999999,0.0
mp-1223370,La16Si10N28O2,56,5,2,827.3701294242129,5.875576078198987,14.774466596860943,9.99665008,-8.421011535714287,-1.69606523482143,0.0,2.3602,1.0
mp-1223592,La18Al10S42,70,6,146,1640.5755781266969,4.166940023074544,23.43679397323853,7.39616572,-6.417503664428571,-2.130146692642856,0.0,2.175,0.0
mp-1223486,La18Al10Se42,70,6,146,1866.00612293249,5.416252955095548,26.657230327607003,4.77968372,-19.100470406714283,-1.9031481682946407,0.0,1.694,0.0
mp-1224434,La18In2Si6S42,68,6,146,1638.334192117486,4.302713726476539,24.09314988408068,5.3036552,-6.447397873970588,-2.024905441740195,1.0,1.9284,0.0
mp-567777,La18Sb32Br6,56,2,176,1740.465409265866,6.560278111615265,31.07973945117618,6.99710515,-5.35561419875,-1.234224077678571,0.0,0.227799999999999,0.0
mp-1195616,La4Ag4I16O48,72,4,9,1220.8089489120114,5.149071643337414,16.95567984600016,5.81874917,-5.355893298472222,-1.286419559398148,0.0,2.6566,1.0
mp-1223057,La1Ag1Mo2O8,12,1,82,166.16266330675398,5.662779874577867,13.846888608896164,2.51065146,-8.015912742499944,-2.261418322222167,0.0,2.5972,1.0
mp-753260,La1Ag1O2,4,6,166,77.42572969016877,5.978795149622664,19.35643242254219,2.59894838,-6.987022248749989,-2.568305550416656,0.0,2.826699999999999,1.0
mp-1079283,La1Al1H6,8,6,166,77.11134527059274,3.702492803109261,9.638918158824092,3.6539724,-7.58502247,-0.4340783521875,0.0,2.476499999999999,0.0
mp-1102055,La4As8,12,4,14,305.69977572160457,6.273847546429921,25.47498131013372,6.49246895,-20.9631913025,-1.243243909166667,0.0,0.184,0.0
mp-1079050,La2As2O6,10,4,11,141.51370411239242,6.144579313856287,14.151370411239242,5.73894676,-7.753694633,-2.863692102500001,0.0,2.692999999999999,1.0
mp-1103471,La4As4S4,12,3,62,288.30050422897494,5.665108210533685,24.025042019081244,6.72874296,-19.3966400725,-1.9008699809375,1.0,0.054,0.0
mp-28853,La4Au4O12,20,3,57,302.0584155163614,8.441168934491103,15.102920775818069,4.2695541,-6.925627539500001,-2.314873115500002,0.0,1.797699999999999,1.0
mp-29597,La6B6N12,24,5,2,305.6007564033665,5.794371635269059,12.733364850140273,6.9589824,-15.443102330833334,-1.605943394583332,0.0,2.172799999999999,0.0
mp-1205991,La1Bi2Cl1O4,8,1,123,148.503099738958,7.338835382018139,18.562887467369748,4.08909277,-6.7218508475,-2.427293029375001,0.0,1.3154,1.0
mp-546672,La1Bi2I1O4,8,1,123,159.5889019714755,7.780607084812007,19.94861274643444,4.87872658,-6.555715865000001,-2.301724320000001,0.0,1.2225,1.0
mp-1206717,La1Bi1Pd1,3,0,216,83.03927624455808,9.08476903265567,27.67975874818603,6.75189554,-38.16708436333334,-1.09791517666667,0.0,0.121699999999999,0.0
mp-23263,La2Br6,8,2,176,253.3722534125192,4.962730462902288,31.671531676564893,1.81661217,-4.884754481249999,-2.423042803749999,0.0,2.9266,0.0
mp-1180738,La2Br6O14,22,5,2,409.6135815219527,3.977810005226655,18.61879916008876,2.0177464,-5.120367600454545,-1.07649726,0.0,2.1086,1.0
mp-556405,La2C2N4F2,10,3,63,134.55084062885328,4.885396930044567,13.455084062885328,4.87308511,-8.472591712,-1.921575619499999,1.0,2.682799999999999,0.0
mp-1078624,La2Co2C4,8,4,9,107.82985885429412,6.833122275504938,13.478732356786765,8.42327351,-7.90993912625,-0.278250423750001,0.0,0.042199999999999,0.0
mp-989643,La2Co2N6,10,4,12,156.9199040239598,5.076409550800055,15.691990402395978,5.55904143,-14.714296219,-0.641243549249998,0.0,0.4901,0.0
mp-1288145,La2Co2O6,10,6,148,118.07297697836468,6.914735764099035,11.807297697836468,5.95606719,-7.982587506,-2.599926138,0.0,0.9497,1.0
mp-1106068,La1Cr4Cu3O12,20,0,204,206.6821235057029,5.861162793761313,10.334106175285148,4.92870449,-7.8054863455,-2.04441889275,0.0,0.2062,1.0
mp-24050,La4Cr4H4O20,32,4,14,431.0876709930837,4.189508656350392,13.471489718533864,1.59687153,-7.7297782890625,-2.38927503421875,0.0,2.5457,1.0
mp-19281,La4Cr4O12,20,3,62,236.61766314523803,6.706217884389386,11.8308831572619,6.30265858,-9.0832108625,-3.1966233445,1.0,2.3706,1.0
mp-1105175,La2Cr2Te2O12,18,6,163,249.08943012038503,5.5264494513375695,13.838301673354726,4.12085665,-7.82323561611111,-2.554332671851851,0.0,2.758499999999999,1.0
mp-20072,La1Cu1O2,4,6,166,72.1429818425825,5.396420033751985,18.035745460645625,4.19604131,-7.421987267499986,-2.689203321249986,0.0,2.521599999999999,1.0
mp-4841,La4Cu4S8,16,4,14,330.76607768599985,5.353256881280149,20.67287985537499,6.79762452,-15.85122335375,-1.685829761406248,1.0,1.234599999999999,0.0
mp-6088,La2Cu2S2O2,8,1,129,135.84241264338414,6.124617206709288,16.980301580423017,7.42975286,-6.8852715025,-2.354887915625,1.0,1.668499999999999,1.0
mp-11790,La4Cu4Se8,16,4,14,373.3121531731047,6.411909168631721,23.33200957331904,5.96075017,-18.850806891875,-1.547132725156249,1.0,0.8712000000000001,0.0
mp-552488,La2Cu2Se2O2,8,1,129,146.14257085077844,6.758638028487416,18.267821356347305,7.09944263,-6.68391434375,-2.314142779335937,1.0,1.5380999999999991,1.0
mp-10288,La4Cu4Te4S4,16,4,14,378.7423888627738,6.350580899062273,23.67139930392336,7.38505929,-5.64057968999999,-1.561359881041657,1.0,0.5769000000000001,0.0
mp-558977,La12Er12S36,60,3,62,1405.4097717016073,5.704815482612086,23.42349619502679,5.41449624,-6.831274340333334,-2.447513416833332,1.0,1.135899999999999,0.0
mp-1078634,La2Fe2O6,10,6,167,115.45061726760385,6.982962229917882,11.545061726760384,5.52079262,-8.50290807,-2.852925804,0.0,1.950899999999999,1.0
mp-1297758,La4Fe4Te4O24,36,6,163,501.5087201281372,5.540731741193557,13.930797781337144,3.98304994,-7.491150279166667,-2.35369469712963,0.0,2.478199999999999,1.0
mp-4816,La12Ga12S36,60,4,14,1399.3919751039664,4.34049606706342,23.323199585066103,4.50433818,-14.742639420500002,-1.6841287401874991,1.0,2.2366,0.0
mp-28255,La8H8O8,24,1,129,370.8574462763354,5.584880435065513,15.452393594847308,4.94895083,-6.936521233333331,-2.510143050416665,0.0,2.431499999999999,1.0
mp-1212028,La4H4Se8O28,44,4,4,627.9228540334583,4.335165757814915,14.27097395530587,2.04862397,-6.403823502045454,-1.862121362585226,1.0,2.6835,1.0
mp-765350,La8H8Se24O80,120,3,61,1949.3881083434069,3.657994879312186,16.244900902861723,1.4032952,-6.196848361666667,-1.643613826552084,0.0,1.5911,1.0
mp-1200097,La8Ho8S24,40,4,11,946.3289521611864,5.615525156412775,23.65822380402966,5.7599419,-19.807661092750003,-2.4614368194375,1.0,0.758799999999999,0.0
mp-27979,La2I6,8,3,63,331.13842768628007,5.211400295711964,41.39230346078501,2.97576586,-4.2079932975,-1.83098206,0.0,2.0709,0.0
mp-1106374,La4Lu4S12,20,3,62,484.78207567773165,5.618467249845161,24.239103783886584,4.42531927,-20.8474945185,-2.46156299152083,1.0,2.232199999999999,0.0
mp-703316,La4Mg8H28,40,1,92,383.04047460936687,3.373981092560822,9.576011865234172,3.3859791,-3.65036908175,-0.454057861125,0.0,2.645,0.0
mp-1194207,La4Mo4Br4O16,28,4,7,466.8509654349486,5.388651648256424,16.673248765533877,5.348198659999999,-7.9453658775,-2.629587624642856,1.0,1.8558,1.0
mp-1204388,La8Mo8Cl8O32,56,4,14,926.0648725181354,4.795445334505783,16.53687272353813,5.53875635,-8.059944158035714,-2.713937867321429,1.0,2.7474,1.0
mp-989631,La4Mo4N12,20,4,15,326.4614816147412,5.63308226021011,16.323074080737058,4.45450499,-9.272825628,-1.113527538000002,0.0,2.0751,0.0
mp-29183,La4Nb28O48,80,4,14,1018.7866298606734,6.3973835986162495,12.734832873258418,5.33137577,-9.63264050475,-2.8816067825,1.0,0.416299999999999,1.0
mp-1222992,La2Nd2Co4O12,20,3,26,233.72013919466167,7.062334945330837,11.686006959733083,4.58726844,-7.933371391499999,-2.567495990749999,0.0,1.0783,1.0
mp-2804,La8P16,24,4,9,556.8459061815292,4.7916199361889245,23.20191275756372,7.34736905,-17.17703847375,-1.260727530734127,0.0,0.5563,0.0
mp-1864,La4P20,24,4,11,526.0347018161955,3.709440970476049,21.91811257567481,7.06882829,-13.13776888,-0.678575252480158,1.0,0.1139,0.0
mp-200,La4P28,32,4,14,658.729887501915,3.586841669646944,20.58530898443484,6.43917177,-12.10971631125,-0.514802012604166,0.0,0.861699999999999,0.0
mp-1191492,La8P8S8,24,3,62,559.5556655975059,4.794322454441837,23.31481939989608,7.05104877,-17.483708861666667,-1.889756995262895,0.0,0.339699999999999,0.0
mp-560571,La8P8S32,48,1,142,1206.9722188183716,3.281413336965101,25.14525455871608,3.40973272,-13.137268307708332,-1.322792833412696,0.0,2.4374,0.0
mp-1222782,La1Pa1O4,6,1,123,83.87554665281081,8.590973266345161,13.979257775468469,6.63051539,-9.846143724999996,-4.134119007499997,0.0,2.329699999999999,1.0
mp-560665,La2Pb12Br2O14,30,3,63,682.3884616807068,7.660437972329734,22.74628205602356,3.67864328,-6.110507997333333,-1.8782037909999991,0.0,1.930499999999999,1.0
mp-556523,La2Pb12Cl2O14,30,4,12,675.5957553605919,7.518947831352811,22.519858512019727,3.6215832,-6.150787462,-1.904376837999999,0.0,2.1393,1.0
mp-1002107,La2Rh2,4,3,63,94.4362498119456,8.503865056417112,23.6090624529864,7.92994453,-6.890009814999999,-0.7398523274999991,0.0,0.081199999999999,0.0
mp-5163,La4Rh4O12,20,3,62,250.620518807492,7.6807669369413905,12.5310259403746,7.03522013,-7.973849524000007,-2.545009926000008,0.0,0.5939999999999991,1.0
mp-1508,La8S16,24,3,62,557.9655833265863,4.8339659637129095,23.24856597194109,6.71840804,-17.413096317916665,-2.141503528124997,0.0,0.6312999999999991,0.0
mp-1211452,La8S8Br8,24,3,61,711.417339097452,4.684584817975648,29.6423891290605,6.15440784,-6.056585963749998,-2.486148227916665,0.0,2.790799999999999,0.0
mp-5394,La2S2F2,6,1,129,114.13195763048722,5.5278248430274495,19.02199293841453,6.29530716,-17.087878088333333,-3.452609009270832,1.0,1.488099999999999,0.0
mp-1211464,La8S8I8,24,3,61,776.3809724122401,5.096806773038662,32.34920718384334,4.37789811,-5.744614104166669,-2.211821008333336,1.0,2.1752,0.0
mp-28626,La8S8O8,24,3,64,467.2996584628443,5.315146592375424,19.47081910261852,6.89959832,-7.7254010875,-3.051291861666667,0.0,1.522899999999999,1.0
mp-680334,La8Sb8S16Br16,48,4,14,1413.515368490898,4.554336014635855,29.448236843560377,3.21730412,-5.099208547083333,-1.663271788749999,0.0,2.1637,0.0
mp-2031203,La4Sb4Se4,12,3,62,340.76961937820425,6.619854926931992,28.39746828151702,7.10893349,-25.00373651,-1.749517788020834,0.0,0.2904,0.0
mp-1185210,La4Sb4Te4,12,3,62,382.3975990156232,6.744079803916021,31.866466584635265,7.18322635,-5.568124983333329,-1.498686903888884,0.0,0.0186,0.0
mp-1190131,La4Sc4S12,20,3,62,458.30319977671337,4.058837585146462,22.91515998883567,5.12157966,-15.42371525,-2.3740622886875,1.0,1.6446,0.0
mp-570668,La4Se8,12,4,14,315.6735091103255,6.245570498278901,26.30612575919379,6.0960542,-21.481116876666665,-2.025149987708332,0.0,0.238699999999999,0.0
mp-1102246,La4Se4Cl4,12,3,62,304.89742644983494,5.518514480417228,25.40811887081957,5.60988813,-19.25378053583333,-2.517520758020834,1.0,1.336,0.0
mp-7738,La2Se2F2,6,2,194,126.93658909664724,6.19713697545978,21.156098182774542,5.41403732,-19.076587191666665,-3.349131063020832,1.0,1.726099999999999,0.0
mp-1232374,La8Si8P24,40,3,33,883.7565491181256,3.906908122213661,22.09391372795314,6.71384438,-13.96679719975,-0.861842452535711,0.0,0.5185000000000001,0.0
mp-757365,La2Ta6O18,26,4,12,367.0814310692704,7.470711255865575,14.118516579587324,1.935738499999999,-10.068023209999982,-3.524297150153828,0.0,2.4693,1.0
mp-550514,La2Ta2N4O2,10,4,12,133.42307958564874,9.057113041682872,13.342307958564874,7.45401204,-9.901027112,-2.215536883466666,0.0,0.671299999999999,1.0
mp-1222878,La4Ta4Ti4O24,36,3,33,453.0028251261466,6.799249245276648,12.583411809059628,3.39540075,-9.69685823750002,-3.65394793812965,0.0,2.918799999999999,1.0
mp-1222843,La1Tb3Mo4O14,22,6,166,292.0197672836479,6.956921135955189,13.27362578562036,5.06879751,-8.90320101090909,-2.925762261590908,0.0,0.2778,1.0
mp-10383,La4Te4As4,12,3,62,346.59911567945096,6.54304021541837,28.883259639954247,6.87711119,-5.691545626666667,-1.441733783055556,0.0,0.126699999999999,0.0
mp-1103189,La4Te4Cl4,12,3,62,343.7077239389574,5.835351387271301,28.64231032824645,6.6062012,-5.622914180833324,-2.313628914722213,1.0,0.8821000000000001,0.0