material_id,composition,nsites,crystal_system,space_group,volume,density,density_atomic,efermi,energy_per_atom,formation_energy_per_atom,is_gap_direct,band_gap,is_oxide
mp-1193194,Cs12Ge4Se12,28,4,15,1086.8934801255953,4.328130248385943,38.81762429019983,1.28646848,-3.733967840714285,-1.18615426942811,0.0,1.5806,0.0
mp-1193606,Cs12Ge4Te12,28,4,15,1287.814891360479,4.4054778590924535,45.99338897715995,1.53598082,-3.390603692142857,-0.993906799852216,0.0,1.1962,0.0
mp-1203208,Cs6Hf4Cu2Te20,32,5,2,1293.2413441859433,5.38063803987791,40.41379200581073,2.78512056,-4.6234627425,-0.9878017191020112,1.0,1.189,0.0
mp-1197320,Cs6Hf4P10S36,56,4,9,1636.2214919597106,3.019691863893821,29.218240927851976,1.10167778,-13.625794130892857,-0.937631458768068,0.0,2.1363,0.0
mp-1227054,Cs6Ho14Se24,44,3,31,1414.1017150806938,5.873114634710666,32.13867534274304,1.934677129999999,-5.554069385909092,-2.060495445095021,1.0,1.4958,0.0
mp-768211,Cs12Ho4O12,28,4,14,745.155695635001,5.452069772452231,26.61270341553575,3.49444325,-5.373643266428573,-2.207143953423646,0.0,2.3008,1.0
mp-1206444,Cs6I2O2,10,2,194,411.08229598899504,4.375676368508151,41.10822959889951,3.1684206,-3.290399018999997,-1.451217752793101,1.0,1.5285000000000002,1.0
mp-1213723,Cs12I4O20,36,3,52,842.3028707135329,4.775726613170817,23.3973019642648,1.54631671,-4.708485645,-1.487624494885058,1.0,1.411099999999999,1.0
mp-2212807,Cs12I4O20,36,3,63,793.4809885924823,5.069571034275577,22.041138572013395,1.7839978200000002,-15.691553311388889,-1.277203908888888,0.0,2.0299,1.0
mp-28381,Cs12In4O12,28,4,14,711.018247343396,5.245697979715857,25.39350883369272,1.92430136,-4.520225909285713,-1.616370270804597,0.0,2.1174,1.0
mp-1198384,Cs24In8P16,48,5,2,1877.6197894495656,4.071581046309248,39.11707894686595,2.70712451,-19.809439623125,-0.491422622450395,1.0,0.7103,0.0
mp-1213704,Cs6Li2Pb8,16,3,63,692.6355796768471,5.919027914066896,43.289723729802944,2.97276063,-2.682639617500001,-0.247209135287356,0.0,0.7565000000000001,0.0
mp-643895,Cs6Mg2H10,18,1,140,442.9741445522496,3.20927130678638,24.6096746973472,0.45227105,-2.657539283333333,-0.287513181135058,0.0,2.5844,0.0
mp-648179,Cs3Mn3V4O16,26,5,2,454.3645609655727,3.739745579487973,17.47556003713741,0.52615489,-7.918322121153846,-2.313976777029178,0.0,0.889699999999999,1.0
mp-504451,Cs6Mn2Cl10,18,1,140,634.9115307006463,3.300196207122193,35.27286281670257,0.0687745,-15.450313591666664,-2.031326017998083,0.0,2.8966000000000003,0.0
mp-569118,Cs6Mn2I10,18,1,140,881.6749040662489,4.09892580035923,48.98193911479161,0.67632979,-3.588776875000001,-1.421442310766285,0.0,1.9819,0.0
mp-541742,Cs6Mo4Cl18,28,2,194,847.9970402760187,3.5626259839145,30.28560858128638,1.88990304,-14.7170397325,-1.656949164107142,0.0,0.1505,0.0
mp-17707,Cs12Na8Sn4P12,36,3,64,1182.832880532841,3.685582101174573,32.85646890369003,2.67638948,-3.222453383333333,-0.370968194516967,0.0,1.027,0.0
mp-630851,Cs6Na2Pb8,16,3,63,727.652136001544,5.707436756696241,45.4782585000965,2.948812,-2.600298854374998,-0.2357686331681,0.0,0.4754,0.0
mp-683903,Cs6Nb4As2Se22,34,4,9,1163.4542997535273,4.361703743998877,34.21924411039786,1.5003969,-4.9422824629411775,-1.056888840720398,0.0,0.9588,0.0
mp-1192748,Cs6Nb4I18,28,2,194,1216.0916725470674,4.715437114424511,43.43184544810955,2.24406715,-3.8138686660714303,-1.196536071354682,0.0,0.434599999999999,0.0
mp-669313,Cs12Nb8S44,64,4,14,1966.117153511372,3.166302610770275,30.72058052361519,1.73280765,-5.47795932171875,-1.199928194622844,0.0,1.5397,0.0
mp-1197158,Cs12Nb8Se44,64,4,14,2287.178643314237,4.219891176274133,35.73716630178495,2.08114005,-4.937553033281249,-1.101204967952922,0.0,0.8620999999999991,0.0
mp-1213734,Cs6Nb12S2Br34,54,4,15,1639.029450235944,4.754765622691464,30.35239722659156,2.17685288,-5.049982416296294,-1.52041894912835,0.0,0.5779999999999991,0.0
mp-1201443,Cs6Nb18Te8O64,96,3,63,1550.411804389954,4.835179138340342,16.150122962395354,2.7190512,-8.130716346979167,-2.619390226054837,1.0,1.4336,1.0
mp-572442,Cs12Nd4P8S32,56,4,14,1728.705466117554,3.309832367071027,30.86974046638489,2.67597631,-5.042360844642857,-1.368796292196516,0.0,2.3644,0.0
mp-572404,Cs12Nd4Cr12O48,76,4,15,1529.8445364451163,3.868209447223829,20.129533374277845,1.83379927,-7.284743730657895,-2.241230329945554,0.0,2.6163,1.0
mp-17450,Cs6Ni2F14,22,1,127,421.9599295330494,4.646791485082729,19.17999679695679,-0.8335355600000001,-12.462680807272728,-2.53638337,0.0,0.873499999999999,0.0
mp-23636,Cs6Np2Cl8O4,20,4,15,676.7898565046908,3.972433849572962,33.83949282523454,2.08801978,-5.897557982,-2.601377421771553,0.0,0.2279,1.0
mp-1201856,Cs6Np2H16O18,42,4,15,633.060065826536,4.132720931819514,15.072858710155618,1.77134104,-6.025193994761905,-1.864970521081692,0.0,1.6332,1.0
mp-541113,Cs12P28,40,1,76,1414.175426477256,2.891058800427159,35.3543856619314,1.65127529,-14.3665513525,-0.532562034083332,0.0,2.4278,0.0
mp-583193,Cs12P4Se16,32,3,62,1225.7369547272226,4.039959408887197,38.30427983522571,0.84309793,-18.776925413125,-1.08021588365327,1.0,1.9376,0.0
mp-1183951,Cs6Pb8Au2,16,3,59,733.7167194848462,6.447746066982817,45.857294967802886,3.36380685,-2.870169841874997,-0.264119467995685,0.0,0.7054,0.0
mp-1213701,Cs6Pd2F10,18,1,127,411.5149388074026,4.843258468676371,22.8619410448557,1.53998681,-15.125599002777776,-2.468270962777776,0.0,2.0825,0.0
mp-1226429,Cs6Pr10P12S48,76,4,9,2317.5142233597844,2.95012702304062,30.493608202102426,1.76102384,-5.584394815,-1.412953741977788,1.0,2.3179,0.0
mp-1197940,Cs12Pu4H16O28,60,4,14,1053.1648404092932,4.785286653038135,17.552747340154887,2.37346041,-6.387922981666666,-2.009372449514366,1.0,1.229199999999999,1.0
mp-1118943,Cs12Re8N20,40,1,80,977.3930202409156,5.716371673934991,24.434825506022893,3.71044459,-7.341551047,-0.410396061896553,1.0,0.3266,0.0
mp-669364,Cs6Re6S8I8,28,0,225,1061.1347142774014,4.986353013969094,37.89766836705005,1.260400269999999,-5.716513581071429,-1.236673290818966,0.0,2.4339,0.0
mp-1227999,Cs6Re12S14Cl14,46,4,4,1371.8128320268197,4.814245694131081,29.82201808753956,1.13374897,-6.542678230869564,-1.35481151223763,0.0,2.372099999999999,0.0
mp-1213725,Cs12Re4O20,36,3,52,831.2365661028841,5.31317447688295,23.089904613969004,1.26014003,-6.567276486944443,-2.132626270996169,1.0,2.0941,1.0
mp-2751042,Cs12Re4O20,36,3,63,782.7130847208693,5.642559187374109,21.74203013113526,1.77412088,-19.441504876666663,-1.932496481388887,1.0,2.3753,1.0
mp-541646,Cs6Ru4Cl18,28,2,194,823.8382230724488,3.708459338318287,29.42279368115889,1.01563593,-4.314048686785717,-1.606218473140396,0.0,0.488599999999999,0.0
mp-10378,Cs3Sb1,4,0,225,197.5785354056601,4.374317888868654,49.394633851415016,2.52653902,-25.758220295,-0.500301612499999,0.0,0.6126,0.0
mp-579560,Cs3Sb2Br9,14,6,164,540.7941077469031,4.180171248994283,38.628150553350224,0.49424839,-3.379595010714287,-1.542848295997538,1.0,1.9837,0.0
mp-27629,Cs3Sb2Cl9,14,6,164,471.3744350936588,3.386476362611856,33.66960250668991,0.92670003,-3.787036837142856,-1.814263952068964,0.0,2.395299999999999,0.0
mp-23029,Cs6Sb4I18,28,2,194,1328.918986147041,4.45930423294189,47.46139236239433,1.506494019999999,-2.913528757142858,-1.149382419568967,0.0,1.8829999999999991,0.0
mp-29970,Cs12Sb20O56,88,3,55,1444.487970856748,5.662815094418961,16.414636032463047,3.37246353,-6.168564173636364,-1.957637219952978,0.0,1.187,1.0
mp-1226687,Cs6Sb10Se18,34,4,12,1183.086425793739,4.823089317845563,34.79665958216879,3.06845744,-20.25190155117648,-0.6836086259742661,1.0,0.410299999999999,0.0
mp-1201472,Cs12Sb4O16,32,3,62,818.6825578562423,4.741969045445384,25.58382993300757,3.3359497,-5.222023365624999,-1.891426119245689,1.0,2.7517,1.0
mp-1193894,Cs12Sb4S12,28,0,198,1118.088725567822,3.663419025616208,39.93174019885078,1.1389393,-19.026391063214284,-1.1497236379910691,0.0,2.654,0.0
mp-1204783,Cs12Sb4S16,32,3,62,1193.623436784576,3.610023159282134,37.300732399518,0.80817105,-17.7387581778125,-1.092299295468748,1.0,2.130499999999999,0.0
mp-1192816,Cs12Sb4Se12,28,0,198,1238.0707090884969,4.063159904343593,44.21681103887489,0.77575766,-21.7114614825,-1.144839279241068,1.0,2.2748,0.0
mp-17811,Cs12Sb4Se16,32,3,62,1324.6951139352914,4.19337541466686,41.396722310477855,0.73094002,-20.85573803875,-1.070998582031251,1.0,1.3871,0.0
mp-572833,Cs12Sm4P8S32,56,4,14,1713.8575879946936,3.3622175245427472,30.60459978561953,1.88892334,-5.033636243392857,-1.363611783625087,0.0,2.373199999999999,0.0
mp-1226868,Cs6Sm14Se24,44,3,31,1489.2642178457977,5.349257159561097,33.846914041949944,1.40820466,-22.79810314954545,-2.107441694488634,1.0,1.4741,0.0
mp-1226825,Cs6Sm14Te24,44,3,31,1802.550116259027,5.494939683082093,40.96704809679607,2.76833837,-28.445692922045453,-1.697396514772725,1.0,0.864599999999999,0.0
mp-1191952,Cs6Sn2P2Se14,24,5,2,933.661556394845,3.916736123355575,38.90256484978521,2.33074225,-4.03429705,-0.982600513751219,0.0,1.418899999999999,0.0
mp-1193021,Cs12Sn4Te12,28,4,15,1349.497938530115,4.430865701213335,48.19635494750412,1.89334425,-3.352292057142859,-1.04323173628079,1.0,1.0929,0.0
mp-556091,Cs12Ta8S44,64,4,14,1954.227104129224,3.784049797730573,30.53479850201912,1.7557513500000002,-5.7230789196875005,-1.224344979758261,0.0,1.7232,0.0
mp-17054,Cs12Ta4S16,32,3,62,1183.5455216575715,3.972929906156689,36.98579755179912,0.47916987,-5.44183132125,-1.548794005787355,1.0,2.9443,0.0
mp-571397,Cs6Tb20C8Cl42,76,4,15,2251.961980667124,4.10057675627866,29.63107869298848,2.15125403,-5.554437878552632,-2.269263412385058,0.0,0.6759000000000001,0.0
mp-1226739,Cs6Tb14Te24,44,3,31,1735.7076446465962,5.821272707910817,39.44790101469537,2.99214633,-28.91108752522728,-1.6875834447727232,1.0,0.8438000000000001,0.0
mp-569484,Cs6Ti4Cl18,28,2,194,845.4797647559095,3.195567799964196,30.195705884139624,2.24518304,-13.258855758214285,-2.075082679345237,0.0,0.2181,0.0
mp-1203892,Cs12Ti12Te44,68,4,14,2717.090392979526,4.756958837827176,39.95721166146362,3.56302492,-4.601927164117647,-1.014469894252873,0.0,0.079,0.0
mp-12244,Cs6Ti2F14,22,1,127,443.9768476772147,4.335371309042672,20.18076580350976,-0.85356416,-5.606691225909091,-3.423382921118078,0.0,2.9901,0.0
mp-1192769,Cs6Tl4Cl18,28,6,167,895.1707236747184,4.179530826539358,31.9703829883828,-0.62993992,-3.409070661785713,-1.687373365759442,1.0,2.189,0.0
mp-756122,Cs12Tl4O12,28,4,14,728.6619659659376,5.935116561963551,26.02364164164063,1.64028993,-4.20063562642857,-1.352165934614122,0.0,1.5853000000000002,1.0
mp-1201357,Cs3Tm11Te18,32,4,12,1169.1307492091253,6.467839997969992,36.535335912785165,3.115781,-30.3716006371875,-1.647634144375,0.0,0.9707,0.0
mp-669308,Cs6Tm4I18,28,2,194,1328.0818700419509,4.698048121483075,47.43149535864109,0.96506311,-3.548434023928568,-1.733787652068964,1.0,2.8922,0.0
mp-756459,Cs12Tm4O12,28,4,14,737.0501154078323,5.548110259412932,26.323218407422583,1.25032042,-5.381107240714286,-2.231061925566504,1.0,2.6196,1.0
mp-557858,Cs12U8Ge8O44,72,4,14,1425.3989724292978,5.573411412180834,19.797207950406914,3.32587111,-7.788626651388887,-2.8452722349425272,0.0,0.194299999999999,1.0
mp-1201643,Cs6U4P2O20,32,4,15,654.4492055028687,5.408230639091441,20.451537671964648,1.32787416,-8.148143980625001,-3.135529211475521,0.0,2.150299999999999,1.0
mp-1226167,Cs6V4O4F14,28,4,15,511.0339840996517,4.325478202012364,18.251213717844703,-0.21981422,-6.151579609642857,-2.995534360640394,1.0,2.8433,1.0
mp-1200171,Cs12V4S16,32,3,62,1117.384674689852,3.435361871029488,34.91827108405787,0.8785444800000001,-4.989308214374997,-1.4441485829956862,0.0,1.6048,0.0
mp-1120763,Cs3V1Se4,8,0,217,318.888577821399,3.9861543598476272,39.86107222767488,0.33488618,-19.573952955,-1.241305998281248,1.0,1.4894,0.0
mp-1196700,Cs6Y4H36N18,64,6,167,895.8687565938658,2.6718253784641472,13.997949321779153,0.12761063,-5.35703325671875,-0.6101704031707971,1.0,2.2297,0.0
mp-1226222,Cs6Y14Se24,44,3,31,1415.1487002829508,4.619867185806584,32.16247046097615,1.75335207,-19.818552914772727,-2.124948892443182,1.0,1.5161,0.0
mp-770815,Cs12Y4O12,28,4,14,752.0105858838373,4.730883448868786,26.85752092442276,3.55708848,-5.622513903571426,-2.182955728423644,0.0,2.341599999999999,1.0
mp-540822,Cs6Zr4I18,28,2,194,1253.2861063581931,4.566578331457093,44.76021808422119,2.72543048,-3.858123160000003,-1.462734052426111,0.0,0.395599999999999,0.0
mp-1204981,Cs6Zr4P10S36,56,4,9,1652.099409975344,2.639823179962501,29.501775178131144,1.03322105,-5.456689242500009,-1.121433034899286,0.0,1.9114,0.0
mp-567781,Cs6Zr14B2Cl40,62,6,167,1765.3037636213255,3.305748477236205,28.472641348731056,2.19690654,-5.667946444516129,-2.241879189939748,0.0,1.1888,0.0
mp-1201250,Cs6Zr14Mn2Cl40,62,6,167,1799.71968133555,3.323961867352283,29.02773679573468,2.30478402,-5.66443621483871,-2.15828433054505,1.0,1.1378,0.0
mp-1104686,Cs4Au6S5,15,6,157,502.6188538168242,6.190433920719732,33.50792358778828,0.8493585,-30.388516880666668,-0.78061232660417,0.0,2.409,0.0
mp-1204289,Cs32Bi8As24Se56,120,4,14,4719.161699070379,4.273373863182977,39.32634749225316,1.44419152,-3.984356640583333,-0.917443805085129,1.0,1.4702,0.0
mp-23583,Cs8Bi2Sb2Cl24,36,1,141,1280.6514323336114,3.339611668915372,35.57365089815588,0.41851704,-3.686974806388889,-1.807338171312261,0.0,0.315399999999999,0.0
mp-1196471,Cs8Co6F20,34,3,64,616.590110730016,4.838991995597819,18.135003256765177,-0.12444019,-5.240691560294112,-2.642416019624742,1.0,2.399,0.0
mp-505031,Cs4Cu3F10,17,4,12,308.40222378759233,4.91182104758198,18.14130728162308,0.66350379,-12.06933676,-2.408485024705883,1.0,0.123,0.0
mp-561495,Cs4Cu1Si2O7,14,5,2,290.7780836904162,4.359155685739731,20.769863120744017,2.27147805,-6.178913713571406,-2.377665138830027,0.0,0.5831000000000001,1.0
mp-1191216,Cs8Fe4O10,22,4,15,499.6914749894541,4.807296471331682,22.713248863157,2.16893738,-5.737119652727272,-1.617868950329153,0.0,0.523299999999999,1.0
mp-1205381,Cs16Fe4O12,32,5,2,857.9370206286146,4.919775905247241,26.810531894644207,3.2408312,-4.739203354375,-1.370976541077587,0.0,0.390299999999999,1.0
mp-1201003,Cs16Fe4O16,36,4,14,860.1687737708805,5.030557408294739,23.893577049191126,1.70938647,-5.041896013333333,-1.498143178735633,1.0,2.000199999999999,1.0
mp-574485,Cs8Ga4Se10,22,5,2,824.9797286243862,4.290808787028841,37.49907857383574,0.78892467,-18.95823363409091,-1.242127720028409,1.0,2.1204,0.0
mp-1195705,Cs8Ge2P8S24,42,4,15,1306.526745407304,2.828989354988876,31.10777965255486,1.05743298,-4.762442438333334,-0.973054483675815,0.0,2.0929,0.0
mp-1195417,Cs16Ge4P16Se48,84,3,29,3052.5116833296343,3.646212916290767,36.33942480154327,1.11492404,-4.249134093333334,-0.8268593328722441,1.0,1.3838,0.0
mp-779716,Cs16Ge4O16,36,4,14,870.8630599381061,5.096878735546042,24.19064055383628,1.67218676,-4.972877273055556,-1.856568144568966,0.0,2.8955,1.0
mp-1200610,Cs16Ge4Te24,44,4,14,2063.7926724756835,4.408793727587757,46.904378919901895,1.99880744,-3.396724186818182,-0.931744778056426,0.0,1.0706,0.0
mp-1200567,Cs8Hf6Se28,42,4,15,1466.0388208225918,4.921525799605649,34.90568621006171,2.79556241,-5.28012346,-1.35411212387777,0.0,1.6893999999999991,0.0
mp-771139,Cs16Hf4O16,36,4,14,952.6223830585074,5.397475163307956,26.46173286273632,1.06361552,-6.042380742777776,-2.333387039291186,0.0,2.7399,1.0
mp-1190726,Cs8In4S10,22,5,2,784.9370394594698,3.899228035360738,35.67895633906681,1.39986118,-18.12406684136364,-1.236249734914772,1.0,2.1801,0.0
mp-1225983,Cs4In1Sb1Cl12,18,1,123,628.9716401418322,3.151300890713427,34.94286889676845,-0.40642988,-3.651583188888888,-1.8347721408492967,0.0,1.0907,0.0
mp-561672,Cs4Ir1O4,9,4,12,224.0214747532516,5.839766631081034,24.89127497258352,3.19521005,-5.030117486666667,-1.445429877624522,0.0,0.3652,1.0
mp-728544,Cs8La2N16O48,74,4,14,1253.4862249912026,3.090786593772658,16.939003040421657,-0.5749145800000001,-6.611938130945946,-1.368013712935694,0.0,0.351099999999999,1.0
mp-1192853,Cs8Mn2As4S16,30,5,2,1010.263306429936,3.264074837670794,33.675443547664536,2.91926523,-4.672423335666666,-0.989686857103448,0.0,1.0343,0.0
mp-2646913,Cs8Mn2Sb4Cl24,38,6,166,1270.894697131325,3.280890425750947,33.44459729292961,1.42059619,-4.101693742894736,-1.82619681376588,1.0,2.0025,0.0
mp-1226457,Cs16Mn12O24,52,4,3,1126.5791602662105,4.672072443497771,21.66498385127328,3.38227307,-6.452098703076921,-1.774735457877982,0.0,1.2663,1.0
mp-1200810,Cs16Nb8S44,68,3,29,2202.406051970629,3.227425138093645,32.38832429368572,2.9762006,-5.3279706825,-1.248177999918863,1.0,1.4593,0.0
mp-1202549,Cs16Os8Cl40O4,68,3,61,2161.792355630708,3.940852158037021,31.79106405339276,0.970314,-4.588661165882352,-1.675717980801217,1.0,0.8307,1.0
mp-866688,Cs8P4Pd2Se16,30,4,14,1105.7210271199765,3.999723066991966,36.857367570665886,1.15626143,-4.164328923,-0.990326858777093,0.0,1.392,0.0
mp-569193,Cs8P4Se18,30,4,15,1096.252121966787,3.951081147757518,36.5417373988929,0.77771965,-17.31052599,-0.8277255431676581,1.0,1.5543,0.0
mp-574070,Cs16Pb36,52,4,14,2380.2578572451835,6.687262087104349,45.77418956240737,3.47023545,-3.037349943653846,-0.187678104316974,0.0,0.9064999999999992,0.0
mp-542099,Cs16Pb4O16,36,4,14,972.7604488890792,5.481772994643944,27.0211235802522,1.32327513,-4.517181267777776,-1.5020255598467411,1.0,2.034399999999999,1.0
mp-1192677,Cs4Pr6Os1I13,24,4,12,1121.3230593414478,4.764056905861709,46.721794139226986,3.59527097,-4.179356436666667,-1.535845167650862,0.0,0.0501,1.0
mp-1213695,Cs8Rb4Fe4O10,26,4,12,666.9680472843214,4.45277035370591,25.65261720324313,1.960557259999999,-5.054066025769231,-1.417694804893899,0.0,1.4865,1.0
mp-652494,Cs8Re12S26,46,4,15,1184.4045987953805,5.792260818183647,25.747926060769142,3.31916669,-6.79231560521739,-1.047999522440029,0.0,1.395899999999999,0.0
mp-650137,Cs8Re12Se26,46,4,15,1328.876106895165,6.686120528550767,28.888611019460114,2.75823961,-6.310810001521742,-0.929616752134326,1.0,1.002199999999999,0.0
mp-679984,Cs16Ru8Cl40O4,68,3,61,2161.032683438757,3.394152629297163,31.77989240351113,0.5212823400000001,-4.391970638382353,-1.708788028595334,1.0,0.6222,1.0
mp-553374,Cs4Sb2O5,11,4,8,299.647198836,4.738877596392007,27.24065443963636,1.6630453200000002,-5.131400656363638,-1.801426312147338,1.0,2.5754,1.0
mp-771255,Cs16Si4O16,36,4,14,836.631372649209,4.951697480912879,23.239760351366915,2.15931908,-5.408581192499999,-2.203128711235632,0.0,2.8227,1.0
mp-29834,Cs32Si8Se32,72,0,218,2936.7198396637027,3.960556234993768,40.78777555088476,0.93656231,-3.850603353055552,-1.290506217277295,1.0,2.215099999999999,0.0
mp-574224,Cs32Si8Te32,72,0,218,3566.9514635919804,3.9853752042580792,49.54099254988861,3.01543043,-24.473635776944445,-1.042916461944442,1.0,1.7759,0.0
mp-1226308,Cs8Sn42Hg4,54,3,40,1891.568376626143,6.014615551544511,35.02904401159524,4.55317666,-3.460353625000001,-0.184343872726693,0.0,0.2411,0.0
mp-505014,Cs8Sn4Te14,26,4,15,1255.3529738159982,4.397516104598284,48.2828066852307,1.66207218,-3.484840352307694,-0.896056102714413,1.0,1.1412,0.0
mp-17213,Cs16Sn4O16,36,4,14,946.7438502255224,5.011585287650842,26.29844028404229,1.51835006,-4.792151245277777,-1.744003894568965,0.0,2.4607,1.0
mp-1181839,Cs4Sr1Sn3Se9,17,6,146,647.4297994298098,4.324312034655128,38.08410584881234,1.193342659999999,-4.081555203529412,-1.21001066027732,1.0,1.592099999999999,0.0
mp-579058,Cs8Tc12S26,46,4,15,1176.1849660566147,4.338370634183361,25.5692383925351,3.28125374,-16.65351087304348,-0.97191207441576,0.0,0.9889999999999992,0.0
mp-680198,Cs16Th8P20Se68,112,4,14,3694.550947137432,4.481774240629887,32.98706202801278,1.64999801,-4.845231848571422,-1.096392936845662,0.0,1.3123,0.0
mp-542011,Cs8Ti6S28,42,4,15,1176.9121339463743,3.172142404220628,28.02171747491368,2.26603816,-5.411602323333333,-1.351820405410507,1.0,1.2347,0.0
mp-650007,Cs8Tl2Sb2Cl24,36,1,141,1169.789728854278,3.643057409233974,32.494159134841055,-0.08657535,-3.53268154888889,-1.7374094801085591,1.0,0.7270000000000001,0.0
mp-1198094,Cs8U2Ge16O40,66,4,14,1137.7400179798965,4.876966754431835,17.238485120907523,3.73018401,-6.887079319242424,-2.315359221321839,0.0,0.012199999999999,1.0
mp-572715,Cs8U4V4O26,42,3,59,869.2563196320137,5.033846091664702,20.69657903885747,0.91825509,-8.081556727857143,-2.905078846600984,1.0,2.087799999999999,1.0