material_id,composition,nsites,crystal_system,space_group,volume,density,density_atomic,efermi,energy_per_atom,formation_energy_per_atom,is_gap_direct,band_gap,is_oxide
mp-649327,Mo24Pb4Br56,84,0,201,2669.3873931686976,4.731435236510219,31.7784213472464,3.68072185,-5.459029072380953,-1.092181490476191,1.0,2.2309,0.0
mp-583553,Mo24Pb4Cl56,84,0,201,2260.486017801904,3.758716784909869,26.910547830975048,1.66889849,-15.35656675047619,-1.125559354523811,0.0,2.5746,0.0
mp-569225,Mo24Pb4I56,84,0,201,3274.8107275360426,5.191327840007774,38.9858419944767,3.48477174,-4.979778655595238,-0.6882203536904761,1.0,1.929899999999999,0.0
mp-560190,Mo32O92,124,4,13,1858.3149575199257,4.058628270383052,14.986410947741335,1.28756243,-8.405164889032259,-1.935219598870967,1.0,0.9108,1.0
mp-706490,Mo36O104,140,4,15,2090.400289538072,4.065379095813415,14.931430639557655,1.99537753,-8.398539050428571,-1.9340294184285711,1.0,0.4984,1.0
mp-28775,Mo4As8O28,40,4,14,575.8683518264014,4.12667933443356,14.396708795660036,2.69006521,-7.209615038999999,-1.727452817999999,0.0,2.5228,1.0
mp-29555,Mo12Br24,36,3,64,1099.441327896964,4.635221919668818,30.540036886026783,0.73376197,-5.752632879999999,-1.046118486666666,1.0,2.1004,0.0
mp-1221539,Mo4Br12O4,20,4,14,540.9740629840984,4.31762576049231,27.04870314920492,0.98308476,-5.292150721499999,-1.151260577499999,1.0,0.9067,1.0
mp-620029,Mo12Cl24,36,3,64,951.0552798406188,3.495750124880732,26.41820221779497,1.25782173,-13.869509143611111,-1.077223398611112,0.0,2.454799999999999,0.0
mp-1221436,Mo1Cl6,7,6,162,187.00819281943544,2.7407284113669883,26.71545611706221,-0.99500846,-9.841069797142856,-0.8429822507142841,0.0,1.094199999999999,0.0
mp-504759,Mo4F20,24,4,12,336.52016301315683,3.768571473327148,14.021673458881535,-1.5520200000000002,-9.581514335416667,-2.631161137083333,0.0,0.9911,0.0
mp-1199487,Mo4H32S16N8,60,3,62,832.3476480406252,2.077016712003626,13.872460800677088,0.62954437,-5.323961716666667,-0.574830024666666,1.0,1.7787000000000002,0.0
mp-1198690,Mo12I24,36,3,64,1348.3113780215317,5.168881205089096,37.45309383393143,2.71370048,-5.274343632777778,-0.6431185194444441,0.0,1.6796,0.0
mp-23396,Mo4N4Cl12,20,5,2,522.9331863949631,2.747456650471394,26.14665931974816,-1.18543223,-6.04119940200001,-1.09528815100001,0.0,1.6768,0.0
mp-715584,Mo4O12,16,4,7,216.31208088552103,4.419817946323175,13.519505055345066,0.44124089,-8.3470251534375,-1.9246418721875,0.0,1.834299999999999,1.0
mp-582976,Mo4P8N4Cl48,64,4,14,1916.4116665545764,2.070307105562971,29.943932289915256,1.00456399,-4.441753376562501,-1.179416594955357,0.0,1.691,0.0
mp-26616,Mo4P8O28,40,4,14,537.803734879939,3.333199632954665,13.445093371998476,1.3003951,-8.13745776175,-2.50622534217857,0.0,1.9637,1.0
mp-555025,Mo4P8Pb4O32,48,4,15,683.3388656309327,4.792838033654391,14.236226367311096,2.89680639,-7.835412847708334,-2.421001825148809,0.0,2.0672,1.0
mp-23397,Mo2P2Cl18,22,5,2,587.8372436990189,2.51969432553645,26.719874713591768,1.97487693,-9.083425030454546,-0.861060864134198,0.0,0.0249,0.0
mp-504818,Mo2P2O10,14,1,85,162.31432249991926,4.233556205135817,11.59388017856566,2.01940547,-8.236521357500001,-2.379245834591837,0.0,2.4078,1.0
mp-21138,Mo2Pb4O10,16,4,12,279.10514937118165,7.024432570792693,17.444071835698853,2.30002316,-7.207339894375,-1.830996234999998,0.0,2.9278,1.0
mp-22169,Mo2Pb2O8,12,1,88,178.95756495491835,6.8133060233731,14.913130412909863,2.57107608,-7.655489158333334,-1.930465625,0.0,2.8876,1.0
mp-1196979,Mo4Pb4Se4O24,36,5,2,558.0811743879062,5.690195521621408,15.502254844108506,2.07549614,-7.002382448611111,-1.697718594427082,0.0,2.3078,1.0
mp-1434,Mo1S2,3,6,160,56.92135256789191,4.669644630696905,18.9737841892973,5.25004401,-15.012827176666669,-0.965501308541666,0.0,1.2042,0.0
mp-27866,Mo4S8Cl12,24,4,14,570.066464451331,3.104310044976815,23.752769352138788,1.1197289,-5.259965249166666,-1.148632308333333,0.0,1.4385,0.0
mp-1634,Mo2Se4,6,2,194,129.4527726305449,6.512714079136082,21.575462105090818,3.8297572,-18.98163681,-0.749936842708334,0.0,1.301,0.0
mp-560907,Mo4Se4S8Cl20,36,4,15,1104.833854548422,2.502726026666845,30.689829293011726,-0.30109727,-4.574229319722223,-1.034118794982639,0.0,2.016,0.0
mp-505727,N4Cl4O4,12,3,62,228.95137369784007,1.899047663420968,19.07928114148667,-1.93406429,-5.447754669166663,-0.40282748583333,0.0,1.98,1.0
mp-556500,N2Cl2O2F8,14,1,108,209.0030357301605,2.247697071579463,14.92878826644004,-1.5403148,-4.184614522142857,-0.928872943571428,1.0,1.3315,1.0
mp-2789,N6O12,18,0,204,229.00320208951547,2.001559698678917,12.722400116084192,-2.01735835,-6.76375249,-0.685685905,1.0,2.8265,1.0
mp-1204579,N16O48,64,4,14,883.8079866669898,1.863962495454049,13.809499791671715,-2.82897672,-6.35912427953125,-0.56358408953125,0.0,0.9199,1.0
mp-1104707,Na2Ge6P6,14,3,26,317.9222114827384,3.487265053620464,22.708729391624168,3.7299973,-10.523725992857145,-0.21139138627551,0.0,1.085499999999999,0.0
mp-1186069,Na2Mo6Se6,14,2,176,299.23668189608355,6.078534573394384,21.37404870686311,4.80971312,-18.563116667857145,-0.7467167274553581,0.0,0.3974,0.0
mp-976892,Na2Te6Mo6,14,2,176,351.79514577885243,6.547936392441767,25.128224698489458,6.31005748,-23.077947189285712,-0.501976929285713,0.0,0.1876,0.0
mp-30252,Na10Ca1Sn12,23,0,217,703.5826996060955,3.999211887465595,30.59055215678676,3.37031257,-3.017403964347826,-0.254896576251873,0.0,0.416399999999999,0.0
mp-562435,Na20Co8O18,46,5,2,631.7377162044643,3.204830813158644,13.733428613140529,2.10902297,-5.223091730869565,-1.462982004295352,0.0,1.4835999999999991,1.0
mp-638558,Na10Eu1Sn12,23,0,217,706.9735069676573,4.242828536745528,30.737978563811183,3.49837793,-16.475740642608695,-0.34022352195652,0.0,0.319999999999999,0.0
mp-1221463,Na20Nb2Ga2As12,36,4,7,868.893501426613,3.218502610917988,24.13593059518369,2.80696753,-3.490522214444444,-0.459003100905172,0.0,0.9536,0.0
mp-30253,Na10Sr1Sn12,23,0,217,713.3937528713749,4.054873809507115,31.01711969005978,3.19596981,-15.446655197826088,-0.327452061739131,0.0,0.6698000000000001,0.0
mp-36165,Na20Zn8O18,46,4,5,591.8883239012027,3.56594146398521,12.867137476113102,0.93173527,-4.363850279782609,-1.6252489201649172,1.0,1.4874,1.0
mp-645945,Na96Sn8Ge64,168,1,92,4473.8035387067375,2.89722150062184,26.629782968492485,2.07993271,-2.861553817380952,-0.142770767931034,1.0,0.3291,0.0
mp-31008,Na28Al8O26,62,4,14,860.6008762092383,2.46118854608636,13.880659293697391,1.2287937,-5.416141773225807,-2.251951860784205,0.0,2.5926,1.0
mp-27559,Na14Cd2O9,25,6,147,365.86870220224085,3.134704078564414,14.634748088089632,0.27351891,-4.064742003999999,-1.455311590972413,1.0,1.3896,1.0
mp-27569,Na14Mn2O9,25,6,147,349.0313642080227,2.739060259185644,13.961254568320909,1.7881536100000002,-4.811260094,-1.545669272806896,1.0,0.5456000000000001,1.0
mp-1029705,Na30Cr14N38,82,5,2,1174.138967624965,2.75765792777125,14.318767897865428,1.94008593,-6.506466771951219,-0.503432110382674,0.0,0.6348,0.0
mp-1029862,Na30Mo14N38,82,5,2,1342.4523708816089,3.172895815455691,16.371370376604986,1.69995413,-6.743361684390243,-0.536711937943649,0.0,1.3736000000000002,0.0
mp-569991,Na30Sn2Ge16P2,50,3,63,1239.4657909607597,2.88214383998147,24.78931581921519,2.19440715,-2.841775899399999,-0.180372703413299,0.0,0.0235,0.0
mp-1030704,Na30W14N38,82,5,2,1360.5320133932787,4.63268840668937,16.591853821869254,1.55389739,-7.18437252804878,-0.61705544404121,0.0,1.6379,0.0
mp-706847,Na17W19O57,93,5,1,1190.9862328783713,6.686503275100458,12.806303579337326,4.19883221,-8.098864878924731,-2.17362289084353,1.0,0.9734,1.0
mp-28413,Na8Ga12Sb12,32,3,62,842.0218254195308,4.894152598950092,26.31318204436034,3.68528783,-3.353283804374999,-0.333942136282327,0.0,0.1913,0.0
mp-541895,Na8Re12S24,44,4,15,888.5571340760382,5.957676211178563,20.19448031990996,3.77550677,-6.889103595681816,-0.9929270879780532,0.0,1.511299999999999,0.0
mp-1196650,Na8Re12Se24,44,4,15,1044.2302146023253,6.859252977431355,23.73250487732557,4.2671919,-6.400810930681818,-0.8550606538019201,0.0,1.281,0.0
mp-1211291,Na40Zn14Sn24,78,4,15,2110.4694239564897,3.685700125371825,27.057300307134483,2.97861368,-2.316696449358974,-0.168812267245799,1.0,0.0228,0.0
mp-1222199,Na40Zn16Sn22,78,4,5,2065.131407999596,3.680899242269251,26.47604369230251,2.84554017,-2.23910120025641,-0.161725434681697,0.0,0.023199999999999,0.0
mp-8411,Na4Ag2As2,8,3,63,181.0436368876272,4.196562005158032,22.6304546109534,1.69559483,-11.2747919025,-0.476849584375001,1.0,0.7266,0.0
mp-1104717,Na4Ag2F8,14,4,14,187.3105433862076,4.075163481497007,13.379324527586254,-1.04226673,-8.1263283,-2.270849716428571,0.0,0.561299999999999,0.0
mp-7392,Na4Ag2Sb2,8,3,63,209.0938002975072,4.377532153368351,26.136725037188395,2.4007414,-13.9950989475,-0.447460443749999,0.0,0.654999999999999,0.0
mp-17473,Na16Al16As24,56,4,14,1268.1146338362944,3.401518031240159,22.644904175648115,2.83170533,-9.882548281785716,-0.6375267442857141,1.0,1.5317999999999992,0.0
mp-7773,Na4As2Au2,8,3,63,178.8373509803222,5.902925127447704,22.35466887254028,2.271661609999999,-18.7013142775,-0.596101208124999,1.0,0.4175,0.0
mp-29411,Na8B8S20,36,3,62,770.4621192425773,1.964955380108066,21.40172553451604,1.46676219,-5.051635373333333,-0.970077269287994,1.0,2.5898,0.0
mp-5004,Na4B4Se14,22,4,15,526.8511866829477,3.91028121287,23.947781212861265,1.73539161,-4.396585393181818,-0.713530352954381,0.0,1.4882,0.0
mp-28588,Na16Be8O16,40,4,14,462.93105263042617,2.496288066967429,11.573276315760657,0.50962657,-5.43495776275,-2.171202476301724,0.0,2.725,1.0
mp-1078709,Na4Bi2Au2,8,3,63,215.2343500970541,6.973251441483099,26.90429376213176,2.6676850400000003,-29.49903658875,-0.44513783,0.0,0.306999999999999,0.0
mp-1190146,Na4Cd2Ge4S12,22,4,9,555.9985001919881,2.96305800606685,25.272659099635824,1.38088,-4.370288565909091,-0.941228123887146,1.0,2.2385,0.0
mp-6078,Na4Cd6Si6O20,36,4,15,484.72242413027567,4.299066172752058,13.464511781396546,1.27147053,-6.445240197777778,-2.483071516264368,0.0,2.453299999999999,1.0
mp-675693,Na16Cd8O16,40,5,1,608.49396671114,4.156477491492943,15.212349167778502,0.27174718,-4.163848417500001,-1.455973666051723,1.0,0.7846000000000001,1.0
mp-2831941,Na2Cd1Sn1S4,8,1,82,222.12645205745184,3.030332516015685,27.76580650718148,0.80309728,-4.0539871175,-1.028179383469826,1.0,1.9501,0.0
mp-1205754,Na2Ce1F6,9,6,150,111.20814332153756,4.480827044812746,12.356460369059729,-0.79267924,-5.842512283333332,-3.608789430306512,0.0,2.226,0.0
mp-1221453,Na8Ce4O12,24,4,15,338.7048420205128,4.590684866581091,14.1127017508547,4.34429898,-6.737312748749996,-2.8266003417097663,0.0,2.294599999999999,1.0
mp-545646,Na4Co2Ge2O8,16,4,7,222.2252086927324,3.609885375166788,13.889075543295773,1.5572232700000002,-6.212351716875,-1.933385447844827,0.0,1.9531,1.0
mp-1210483,Na4Co2Ni2F14,22,3,74,282.096938847402,3.491760763802576,12.82258812942736,-1.343040789999999,-5.157417175,-2.521602485705329,0.0,1.4955,0.0
mp-704459,Na8Cr8O28,44,5,2,615.2457457210974,2.828185875223387,13.982857857297669,-1.06087999,-7.000059226590909,-1.852307996387146,0.0,2.5265,1.0
mp-973225,Na2Cr1H2F8,13,4,12,149.68251015767095,2.795387037468407,11.514039242897764,-2.24888313,-5.211557983076924,-2.562508682712202,0.0,1.589,0.0
mp-18779,Na4Cr2O8,14,3,63,187.88174168847823,2.863108335652559,13.420124406319871,-0.529983299999999,-6.572910432857142,-1.983148568965516,1.0,2.8731,1.0
mp-6090,Na4Cu2C4O12,22,4,14,267.3564734235984,2.851366763450331,12.152566973799928,1.59299643,-6.813644415,-1.820213029341693,1.0,0.5033000000000001,1.0
mp-1199156,Na4Cu2N8O24,38,4,14,495.09285122867936,2.398409385949936,13.028759242859984,0.00916165,-6.34331768,-1.105881297513611,0.0,0.6062000000000001,1.0
mp-557171,Na4Cu2P8O24,38,4,15,505.9556857613569,2.7924008671806133,13.314623309509392,1.3845497,-7.079870379210526,-2.457761200859476,0.0,0.8701999999999991,1.0
mp-15685,Na4Cu2As2,8,3,63,164.53036533736758,3.723102160181024,20.566295667170948,2.53325381,-8.64012057,-0.469448538125,0.0,0.6542999999999991,0.0
mp-3237,Na4Cu2F8,14,4,14,165.63236930279174,3.719826018700392,11.830883521627982,0.29161692,-6.867589831428572,-2.5134085542857143,1.0,0.9147,0.0
mp-7639,Na4Cu2P2,8,3,63,154.5775874052474,3.018608083178496,19.322198425655927,2.99861287,-7.2081465125,-0.463838149494047,0.0,0.6575000000000001,0.0
mp-6467,Na4Cu2P4O14,24,4,15,299.2114864914761,3.146343918577843,12.46714527047817,1.5729482,-6.737202940833334,-2.383092748087028,0.0,0.4979,1.0
mp-555871,Na8Cu4Sb4S12,28,4,14,616.3185058743499,3.529306504003968,22.01137520979821,3.27111142,-4.224064277142856,-0.8916745386083721,0.0,1.2419,0.0
mp-561395,Na4Fe2Ni2F14,22,3,44,288.1303564952604,3.3830482064691783,13.0968343861482,-0.57020108,-5.465642962272727,-2.708318773887147,1.0,2.7689999999999992,0.0
mp-764074,Na4Fe2O6,12,4,9,135.87237108425325,3.662061807835942,11.322697590354435,0.957774199999999,-5.9845288666666665,-1.6516379029597692,0.0,1.8938,1.0
mp-15431,Na16Ga16As24,56,4,14,1270.7621834061197,4.288053836131996,22.692181846537853,2.23885418,-3.64965063160714,-0.399650460215515,1.0,1.0249,0.0
mp-1190388,Na4Ga4Ge2S12,22,3,43,536.3449187660345,2.7892462233673783,24.379314489365207,1.29388267,-4.554085568181818,-1.082011126159873,1.0,2.6215,0.0
mp-1173753,Na4Ga4Se6,14,4,12,337.2883777894185,4.158191571357681,24.092026984958466,2.96920368,-3.799856956428571,-1.053090094255695,0.0,1.362699999999999,0.0
mp-18568,Na8Ge8S20,36,3,63,879.7990720841416,2.654332699435169,24.438863113448377,0.83761459,-4.57636695222222,-0.9517786072509532,0.0,2.514199999999999,0.0
mp-17964,Na8Ge8Se20,36,3,33,978.3476000115536,3.978850703455322,27.17632222254316,0.96844481,-4.130884108333337,-0.8632113688308221,0.0,1.4997,0.0
mp-1029851,Na64Ge32N64,160,3,61,2125.8343684582464,3.665229638462605,13.28646480286404,2.80253738,-5.0876777163125,-0.291072735864224,1.0,2.1512,0.0
mp-5784,Na4Ge2O6,12,3,36,163.7376232579079,3.379495299398916,13.644801938158992,0.06451167,-5.8247068475,-2.132981442959769,0.0,2.9873000000000003,1.0
mp-4068,Na8Ge4S12,24,4,14,559.8550219505224,2.548573608287156,23.327292581271767,1.00446669,-4.37092875,-1.084004064209769,1.0,2.4515,0.0
mp-28278,Na8Ge4Se12,24,4,14,636.8647780044561,3.70766851818596,26.536032416852336,1.07474774,-3.952897278749999,-0.987196637881644,1.0,1.6256,0.0
mp-10340,Na4Ge2Te2O12,20,6,163,251.8799530552762,4.512172789450674,12.593997652763813,2.03307062,-5.9603304275,-1.946576293942528,0.0,2.6629,1.0
mp-643260,Na2H4Pd1,7,1,139,90.2060199924003,2.8796335601518903,12.886574284628614,-0.98793614,-6.5928676571428575,-0.32011560642857,1.0,2.2472,0.0
mp-697096,Na2H4Pt1,7,1,139,89.28112921195864,4.558525658122578,12.754447030279806,-0.85534477,-10.800219515714286,-0.452144137857142,0.0,2.1188,0.0
mp-632760,Na2H6Pt1O6,15,6,147,139.9973699781888,4.069673154104059,9.33315799854592,0.62017451,-5.299222370666668,-1.378333068017241,0.0,2.6137,1.0
mp-37458,Na2H1F4,7,4,10,89.33183756150176,2.28602603764631,12.761691080214536,-3.59432726,-4.246759748571429,-2.284757249144089,0.0,1.3565,0.0
mp-865500,Na2Hf2O5,9,1,123,124.00540431410766,6.467203620556658,13.778378257123071,2.10313073,-8.42483044888889,-3.165094377528736,0.0,1.9603,1.0
mp-505121,Na8Hg12S16,36,3,61,866.1787055285421,5.950708077252114,24.06051959801506,1.97333623,-2.938841876944445,-0.6981867725287371,1.0,1.6498,0.0
mp-4961,Na2Hg1O2,5,1,139,76.23003578649424,6.068127925222486,15.246007157298848,0.69060179,-3.914587437999999,-1.336780317051725,0.0,1.6474000000000002,1.0
mp-28858,Na16Hg8S16,40,3,61,987.5863754950016,4.179310161057072,24.68965938737504,0.545546,-3.205924705750001,-0.951958159801726,0.0,2.1799,0.0
mp-1190145,Na4In4Ge2S12,22,4,9,581.9893308348178,3.085152907095758,26.45406049249172,1.71511373,-4.436717567727272,-1.013538085553812,1.0,2.190699999999999,0.0
mp-1190429,Na4In4Ge2Se12,22,4,9,666.7171580626866,4.0946566279993,30.30532536648576,1.14947922,-4.010568731363636,-0.93781548001404,1.0,1.3672,0.0
mp-1190138,Na4In4Si2S12,22,4,9,551.6837863518672,2.9864156623723432,25.07653574326669,1.81625948,-10.949097381363636,-1.015524564261364,1.0,2.2375,0.0
mp-504854,Na8Li12Co4O16,40,3,58,437.99123936590354,2.877314286639637,10.949780984147589,1.844456769999999,-5.32915761525,-1.795610525525862,0.0,1.483699999999999,1.0
mp-9719,Na8Li4Al4P8,24,3,64,459.5920234536306,2.050051282768388,19.149667643901275,3.00859819,-3.824294132916666,-0.6294795821462771,0.0,1.992999999999999,0.0
mp-9722,Na8Li4Ga4As8,24,3,64,510.19926800491095,3.547436485188726,21.25830283353796,2.36538734,-3.3752254670833333,-0.5484412151819931,0.0,1.2155,0.0
mp-1180690,Na8Mg8Ni4H24,44,3,62,518.2062595804119,2.042234305830922,11.777414990463908,2.06375066,-3.234020632499999,-0.316246368887146,0.0,1.7138,0.0
mp-1210449,Na4Mg2V2F14,22,3,74,289.1436114566342,2.919889571882717,13.142891429847008,0.11371755,-5.764470827727273,-3.328581348887148,0.0,2.5192,0.0
mp-553997,Na4Mn2P10O30,46,4,11,632.2531202359904,2.604202981350949,13.744633048608488,0.47959484,-7.498978171956522,-2.5797503653871283,1.0,1.3872,1.0
mp-28079,Na8Mn8S12,28,4,15,609.8978540446008,2.7449836900351423,21.7820662158786,2.90892459,-9.877077225357144,-1.219930405700429,0.0,0.4915,0.0
mp-540871,Na8Mn8Si8O28,52,4,14,697.026725900628,3.087697392855465,13.404360113473617,3.14621324,-7.755530804807692,-2.640620402009283,0.0,2.498499999999999,1.0
mp-1210501,Na4Mn6P6O24,40,4,15,470.7013446440207,3.497513273469234,11.767533616100517,2.92225744,-7.830435231999999,-2.540863228524014,0.0,0.0619,1.0
mp-19080,Na4Mn6O14,24,5,2,271.6524857617183,3.946251620931512,11.31885357340493,1.38343155,-7.337589572500001,-1.937155033462644,0.0,1.405699999999999,1.0
mp-555618,Na8Mn4F20,32,4,14,404.98538556957504,3.213108968204523,12.65579329904922,-0.65391237,-5.6074305446875,-2.930590704148707,1.0,1.693,0.0
mp-1029605,Na8Mn4N8,20,3,62,301.6193256976624,2.839273439807993,15.080966284883118,2.0197328,-6.062416693499999,-0.358014225637931,1.0,0.7166,0.0
mp-755874,Na4Mn2O6,12,4,12,122.538625916866,4.035959672054634,10.211552159738831,2.07753734,-6.351020723333334,-1.902797412614942,0.0,1.9179,1.0
mp-1195277,Na4Mo4Se4O22,34,4,15,488.3321592417072,3.888547103585765,14.362710565932565,0.7653768200000001,-6.833966084705882,-1.787252214849771,1.0,2.7771999999999992,1.0
mp-1203771,Na4Nb4P12O42,62,2,176,944.2406238120592,2.65063626826917,15.229687480839669,2.08943743,-7.907849249516128,-2.769588801310186,1.0,2.6478,1.0
mp-1192640,Na2Nb4Se4O19,29,5,2,440.84806891357647,3.907693467479749,15.201657548744016,0.45134204,-7.454691267931034,-2.244913105073573,0.0,2.3695,1.0
mp-9753,Na4Nb2F12,18,1,136,255.327600606328,3.289194249834733,14.184866700351552,1.62518597,-8.753803429444444,-3.129514152777778,1.0,0.296099999999999,0.0
mp-2352,Na2O1,3,0,225,41.25395267113869,2.494753644716401,13.751317557046228,0.65267651,-3.969539539999999,-1.425738685919539,0.0,1.8736,1.0
mp-2340,Na6O6,12,2,189,144.24885606779526,2.6929727082185853,12.020738005649603,1.833154899999999,-4.442937286666667,-1.2980963948563211,0.0,1.7361,1.0
mp-1190635,Na6Os3O12,21,2,189,246.36209307534324,6.070402415747758,11.731528241683012,3.0193161,-6.559784118571426,-1.745119403251228,0.0,0.2593,1.0
mp-8989,Na4P4Pd2O14,24,4,15,327.2120112416208,3.312256602871459,13.6338338017342,1.24426605,-6.782368312916667,-2.338201858503694,0.0,1.6031,1.0
mp-1101885,Na4P2S6,12,4,12,270.3317881667296,2.127160252555636,22.52764901389413,1.72179248,-4.5047022175,-1.085703253316912,0.0,2.6345,0.0
mp-567228,Na8P4Se12,24,3,64,629.326594238528,3.312318028514011,26.22194142660533,1.19530414,-10.695153900416663,-0.850967542943948,0.0,1.7908,0.0
mp-27622,Na16Pb8O16,40,3,60,685.0192130732371,5.530353170708311,17.125480326830928,2.19559994,-4.833618121499998,-1.575215994051721,0.0,2.4667,1.0
mp-1210368,Na8Pb4O12,24,4,15,310.6280759004224,6.440079821109834,12.942836495850932,3.60968675,-5.218838009583329,-1.6788427358764322,1.0,1.2504,1.0
mp-560120,Na4Pd2N8O24,38,4,14,527.877624115242,2.519188509676402,13.891516424085316,-0.01316172,-6.385445636842105,-1.091131615408349,0.0,1.7034,1.0
mp-1195013,Na4Pd2S16O52,74,4,14,1117.5994397978611,2.451299038623064,15.102695132403529,1.6217515100000002,-6.294047585675676,-1.709799314398881,0.0,1.545599999999999,1.0