material_id,composition,nsites,crystal_system,space_group,volume,density,density_atomic,efermi,energy_per_atom,formation_energy_per_atom,is_gap_direct,band_gap,is_oxide
mp-1215155,Ba84Cd16Bi72,172,3,64,7131.810149222151,6.6080207567456615,41.464012495477625,3.1701414,-3.508279585523255,-0.8534160487790701,1.0,0.3222,0.0
mp-684034,Ba84Cd16Sb72,172,3,64,6754.249602401213,5.43349508591745,39.26889303721636,3.370863029999999,-3.810692250348836,-1.055796045232557,0.0,0.731399999999999,0.0
mp-561318,Ba6Al3Cu6F33,48,6,145,684.3541981161051,4.642080055490678,14.257379127418856,0.49373184,-5.545349329166666,-3.243204630729166,1.0,0.843399999999999,0.0
mp-556282,Ba8Al4In4O20,36,2,194,609.13961852121,5.413376434001932,16.9205449589225,3.03224632,-6.771036568055556,-2.872980514907408,1.0,2.0183,1.0
mp-28134,Ba16As16S40,72,3,29,1982.7551731299536,3.918265344205699,27.53826629347158,2.71553736,-5.131772555972223,-1.368440024583332,1.0,1.6148999999999991,0.0
mp-28348,Ba8As8Se20,36,4,4,1093.5568719974654,4.976330148320431,30.37657977770737,2.17423041,-4.70128584277778,-1.294868916857641,0.0,1.155,0.0
mp-861937,Ba2As1Au1,4,0,225,129.11914995823278,7.028815039925321,32.2797874895582,2.90434713,-3.891635465,-0.946146861875,0.0,0.5211,0.0
mp-30105,Ba8B16Se52,76,4,14,1938.921890499088,4.605429852984838,25.51213013814589,2.21840448,-4.876477554999999,-0.876353019586073,1.0,1.332999999999999,0.0
mp-568923,Ba24B12N24Cl12,72,0,214,1647.835984961692,4.219455527500701,22.88661090224572,1.89414958,-6.475887993055555,-1.635481336249999,0.0,2.7533000000000003,0.0
mp-28670,Ba4Bi4O10,18,4,14,341.11013077776954,7.522216207949441,18.9505628209872,2.97320869,-6.328183767222226,-2.288425597777783,0.0,2.012899999999999,1.0
mp-1104988,Ba4Bi4Se6O4,18,4,14,501.8784881277455,6.362487027654726,27.882138229319192,4.02676481,-5.378979716666667,-1.823238056336805,0.0,1.419299999999999,1.0
mp-862947,Ba2Bi1Au1,4,0,225,147.75546537595042,7.648884560139377,36.938866343987605,3.16433616,-3.615851409999997,-0.865384862499998,0.0,0.422799999999999,0.0
mp-23127,Ba2Bi1Sb1O6,10,4,12,162.47784885143284,7.168280676948144,16.247784885143282,4.18559859,-6.607482318999999,-2.453007172999998,0.0,1.6958000000000002,1.0
mp-1018098,Ba2Br1N1,4,6,166,119.42436611590482,5.124717030741697,29.856091528976204,2.41621929,-4.86481195,-1.41151841,1.0,1.1377,0.0
mp-17380,Ba4Ca2Pd6O12,24,3,69,393.39379947616953,6.162650544970049,16.391408311507064,2.58720544,-6.274936545416666,-2.019023110416666,0.0,1.4866,1.0
mp-1214858,Ba16Ca8Mo8N32,64,3,61,1260.365740943943,4.919026689220734,19.693214702249104,4.82194531,-7.3555852203125,-1.100296364062501,0.0,2.412699999999999,0.0
mp-19403,Ba2Ca1Mo1O6,10,0,225,153.56571582872633,5.478714226488384,15.356571582872633,2.369640689999999,-7.539842310999999,-2.9021457209999992,0.0,2.258,1.0
mp-1520564,Ba2Ca1Se1O6,10,0,225,143.5908969776417,5.6629405886883,14.359089697764167,2.97153411,-6.452516751,-2.549794024234375,1.0,2.01,1.0
mp-550685,Ba2Ca1Te1O6,10,0,225,154.00023183896883,5.804636318956966,15.400023183896884,3.089568599999999,-6.654382466,-2.786920297666666,1.0,2.9976000000000003,1.0
mp-557448,Ba4Ca2U2O12,20,4,14,337.1538572711704,6.39047624557279,16.85769286355852,2.66130363,-8.232708689999999,-3.550436109999999,0.0,2.1948,1.0
mp-1102943,Ba2Cd1B2O6,11,4,12,158.3624123132637,5.291953372791124,14.396582937569429,1.65105378,-7.165088234545454,-2.815587358030302,1.0,2.821899999999999,1.0
mp-1079666,Ba4Cd2As4,10,3,36,332.4173735799118,5.364082097613705,33.24173735799118,2.39171248,-3.758343814999997,-0.9307027879999972,1.0,0.390299999999999,0.0
mp-1214739,Ba4Cd2Ge4O14,24,1,113,419.8063720850605,5.097364603067555,17.491932170210852,0.40767837,-6.561289418333334,-2.504644183749999,0.0,2.9166,1.0
mp-1207118,Ba2Cd1Mo1O6,10,0,225,152.17224725980637,6.318198368159635,15.217224725980635,2.17339806,-7.002457366,-2.469319745,0.0,2.5376000000000003,1.0
mp-18309,Ba8Cd4S12,24,3,62,690.3125667328919,4.649905842641991,28.76302361387049,1.86488532,-4.717959141666668,-1.84911934625,1.0,2.0892,0.0
mp-1205643,Ba2Ce1Pa1O6,10,0,225,184.86334313045165,6.663255379752162,18.486334313045163,6.6743686,-8.541068808,-3.640372512,0.0,0.016199999999999,1.0
mp-1228392,Ba2Ce1Pb1O6,10,6,148,170.76873246930134,6.981437634787639,17.076873246930134,3.0026868,-7.191365368,-2.873834083,0.0,2.3054,1.0
mp-21879,Ba2Ce1Pt1O6,10,0,225,154.26394370884378,7.597965773437191,15.426394370884378,3.83939604,-7.353921987,-2.800542076999999,0.0,1.420399999999999,1.0
mp-1521094,Ba2Ce1Sn1O6,10,0,225,162.30800115493082,6.440040825251537,16.230800115493082,3.40939454,-7.46291288,-3.1156891165,0.0,2.144399999999999,1.0
mp-1190827,Ba8Co4Ge8O28,48,1,113,814.2056759797608,4.8201633329324505,16.962618249578348,2.12935155,-7.062682656250001,-2.4915868775,1.0,2.124,1.0
mp-16887,Ba8Co4O16,28,4,14,479.1449570833152,5.511526936670681,17.112319895832687,1.92898661,-6.723713994285716,-2.328969620000002,0.0,0.3179,1.0
mp-17520,Ba8Cr4O16,28,3,62,479.5301900538086,5.411010865068971,17.12607821620745,4.20873835,-7.486585725714272,-2.731894101428558,1.0,1.9086999999999992,1.0
mp-558012,Ba8Cu4P24O72,108,4,14,1549.3255861107816,3.481283709026693,14.345607278803534,1.32963239,-7.535377842685186,-2.739329850383598,0.0,1.1062,1.0
mp-9372,Ba2Cu1P2O8,13,4,12,209.48442845147213,4.186476448036815,16.114186803959395,1.78836841,-7.363336575384616,-2.874737218406594,0.0,0.258499999999999,1.0
mp-772788,Ba8Cu8O20,36,3,33,618.7637569663804,5.171298819976283,17.18788213795501,1.1042951,-6.0124654175,-1.926224501388888,0.0,0.7110000000000001,1.0
mp-552934,Ba2Cu1Br1O2,6,6,166,161.29466248966747,4.633837672303171,26.88244374827791,1.4944861,-5.610883309999999,-2.365879127499999,0.0,2.307299999999999,1.0
mp-551456,Ba2Cu1Cl1O2,6,6,166,156.03718556296457,4.316923936472801,26.006197593827427,1.6352683,-5.730044841666667,-2.449774615,0.0,2.3029,1.0
mp-3879,Ba4Cu2F12,18,3,64,274.2991648015784,5.474897141352942,15.238842488976578,0.69114755,-5.549511331111102,-3.391703464444434,0.0,0.8501000000000001,0.0
mp-561179,Ba8Cu4I4O8,24,4,11,695.8225789033339,4.745229171899484,28.99260745430558,1.820395309999999,-5.457140619166665,-2.230958756666665,0.0,2.2608,1.0
mp-1045817,Ba4Cu2Mo4F28,38,4,15,621.2761991283428,4.255385351348095,16.34937366127218,0.7921969400000001,-6.032950252368421,-3.063350777631579,0.0,1.4195,0.0
mp-1516815,Ba8Dy4Bi4O24,40,0,201,659.7170939306706,7.471913020077768,16.492927348266765,2.36282337,-7.031215286,-2.827802711166666,1.0,1.733099999999999,1.0
mp-12640,Ba2Dy1Nb1O6,10,0,225,156.79671133235095,6.630188428482101,15.679671133235097,2.02778421,-8.283141384,-3.458601736166666,1.0,2.8514,1.0
mp-1205693,Ba2Dy1U1O6,10,0,225,167.43435632644434,7.648211512289129,16.743435632644434,5.32664326,-8.599756791,-3.656206646166667,0.0,0.8682999999999991,1.0
mp-6653,Ba2Er1Nb1O6,10,0,225,154.67319921611963,6.772306073879824,15.467319921611963,2.06806208,-8.299404884000001,-3.479930908,1.0,2.854199999999999,1.0
mp-6621,Ba2Er1Ru1O6,10,0,225,148.6889622359816,7.136039155136842,14.86889622359816,3.15684303,-7.602358978,-2.865575252,1.0,0.0716,1.0
mp-1206292,Ba2Er1U1O6,10,0,225,168.2717217241136,7.657114717938615,16.82717217241136,5.26082578,-8.615758887,-3.677274413999998,0.0,0.8790000000000001,1.0
mp-1205758,Ba2Eu1Mo1O6,10,0,225,155.88125748065568,6.589206185642854,15.588125748065568,3.84726104,-8.334601781999998,-2.8686539885,1.0,0.0479,1.0
mp-1288978,Ba4Fe2Mo2O12,20,4,15,275.5764878229392,6.296069728794797,13.77882439114696,3.8448601,-7.785249331,-2.5011106080000003,0.0,0.9037,1.0
mp-542120,Ba8Fe4O16,28,4,14,477.32793448863526,5.489534289608774,17.047426231736974,1.36517694,-6.978271274999999,-2.392583402142856,1.0,1.9953999999999992,1.0
mp-18421,Ba8Ga8S20,36,4,15,958.563201144492,3.980353730219704,26.626755587347,1.83093724,-5.065984051666667,-1.667546300277777,1.0,2.8977,0.0
mp-1195309,Ba8Ga4As4Se20,36,3,62,1099.0109011748525,4.920215178645581,30.528080588190345,3.45754671,-4.662965517777778,-1.438995981857638,0.0,1.870299999999999,0.0
mp-1201906,Ba8Ga4Bi4S20,36,3,62,1012.5076926285598,4.681831120781826,28.12521368412666,4.5695669,-5.066465223888889,-1.572256551666666,0.0,2.391,0.0
mp-1203584,Ba8Ga4Bi4Se20,36,3,62,1127.5073101089654,5.585604243519177,31.31964750302681,1.89376407,-4.630743704999999,-1.493450638246527,0.0,1.7506,0.0
mp-1199702,Ba16Ga8S32,56,4,14,1563.02197793212,4.016998936170856,27.91110674878785,2.14280871,-5.143516521071429,-1.7978759249999992,1.0,1.8917,0.0
mp-1203806,Ba8Ga4Sb4S20,36,3,62,1011.0286662432618,4.115668168364566,28.084129617868385,4.75547876,-5.081539605833333,-1.5607790524999992,0.0,2.396699999999999,0.0
mp-1203387,Ba8Ga4Sb4Se20,36,3,62,1123.320537235115,5.090691303125992,31.20334825653096,2.09590984,-4.640931476666667,-1.477086528802083,1.0,1.806699999999999,0.0
mp-1202971,Ba4Gd4Si8O26,42,4,15,592.239294188705,5.1001029534204,14.100935575921548,3.00207531,-9.150969896666666,-3.5312099183333343,0.0,0.122499999999999,1.0
mp-1520715,Ba8Gd4Bi4O24,40,0,201,673.7089537013594,7.264973096200619,16.842723842533985,2.40634648,-7.94615881575,-2.79697156975,0.0,1.5940999999999992,1.0
mp-29084,Ba8Gd4Cl28,40,4,14,1148.7060904993195,3.932393551520615,28.71765226248299,3.61327059,-5.957994209499999,-2.872607037499999,0.0,1.561499999999999,0.0
mp-1079839,Ba2Gd1Mo1O6,10,5,2,158.00130671201794,6.556346761178886,15.800130671201794,3.60971201,-8.885329848,-3.040581021999999,1.0,0.9083,1.0
mp-22531,Ba2Gd1Nb1O6,10,1,87,158.5415112474007,6.50223340807881,15.854151124740074,2.08379471,-9.194270486,-3.423956167000001,1.0,2.71,1.0
mp-2646935,Ba4Gd2Ru2O12,20,4,12,306.14197904266683,6.823173510546011,15.30709895213334,3.12422269,-8.505765741000001,-2.8181416720000003,1.0,0.1467,1.0
mp-1205845,Ba2Gd1U1O6,10,0,225,174.3554687281598,7.294612269902189,17.43554687281598,5.06800426,-9.507937992,-3.6186131759999993,0.0,0.8429000000000001,1.0
mp-570803,Ba4Ge2Te4Se4,14,4,11,496.4109114180391,5.08730620035153,35.45792224414565,2.82781863,-4.576965381428571,-1.471335027574403,1.0,0.8477000000000001,0.0
mp-18335,Ba8Ge8Se20,36,3,62,1102.0495721851778,4.910478330678781,30.612488116254937,2.06466725,-4.78252212,-1.386570677968749,0.0,1.4401000000000002,0.0
mp-17885,Ba8Ge8Te20,36,3,33,1281.28457912682,5.484310872083083,35.591238309078335,3.45600221,-4.2870439508333344,-1.086984500092593,0.0,0.6240999999999991,0.0
mp-1190188,Ba4Ge10Ir8,22,3,63,462.5186048797073,10.100855672403556,21.023572949077604,6.07488466,-6.233429069090909,-0.5691721713636361,0.0,0.201299999999999,0.0
mp-8195,Ba8Ge4As8,20,4,14,644.061635388971,5.126936284981981,32.20308176944855,2.95775852,-4.449578873500002,-0.889334313500002,0.0,0.578599999999999,0.0
mp-8194,Ba8Ge4P8,20,4,14,606.6728033161835,4.480580204435174,30.33364016580917,3.33839067,-4.709124807999999,-0.8507398508571411,0.0,0.6808999999999991,0.0
mp-540805,Ba8Ge4S16,28,3,62,777.9300530059315,4.060395878660701,27.78321617878327,2.09245148,-5.291810084999999,-1.718322084285712,1.0,2.2853,0.0
mp-11902,Ba4Ge2Se8,14,4,11,445.1161460726647,4.947741946035637,31.794010433761763,1.98518789,-4.829681733571427,-1.62330692705357,1.0,1.4121,0.0
mp-1018651,Ba2H3I1,6,6,164,144.70523533798794,4.642711762503339,24.11753922299799,2.33899962,-3.605200005,-1.013956369791667,0.0,2.2391,0.0
mp-697044,Ba2H6Os1,9,0,225,132.4873939101363,5.902451266030814,14.7208215455707,1.41689855,-4.455324932222222,-0.517956494166666,0.0,1.9655,1.0
mp-643253,Ba4H12Pt2,18,3,64,264.6852918972529,5.9698114457676335,14.704738438736271,1.23788038,-4.022623613333334,-0.658170076388889,0.0,1.7589,0.0
mp-697038,Ba2H6Ru1,9,0,225,131.25801509945663,4.829775326555091,14.584223899939625,1.32609141,-4.371839651111112,-0.6514673119444451,0.0,1.8699,0.0
mp-1200998,Ba8H32Pt4O32,76,3,61,813.4492799491153,4.946585582034409,10.703279999330464,1.09770555,-5.711394641052632,-1.676968180526316,1.0,2.4355,1.0
mp-9321,Ba2Hf1S4,7,1,139,193.9978029565265,4.976572109395772,27.71397185093236,2.54239858,-6.543291955714287,-2.20778093,0.0,0.8648,0.0
mp-1194545,Ba8Hg4S20,32,3,62,910.7392948649456,4.635298641314908,28.46060296452956,3.71397281,-4.551202924375001,-1.446275455000001,1.0,1.6693,0.0
mp-12641,Ba2Ho1Nb1O6,10,0,225,155.6667424207625,6.7042411640069375,15.56667424207625,2.10417728,-8.291220755000001,-3.4687507135,1.0,2.8516,1.0
mp-6609,Ba2Ho1Ru1O6,10,0,225,149.60325945917185,7.066579940576316,14.960325945917186,3.14727577,-7.595754327,-2.855974535499999,1.0,0.076,1.0
mp-1205585,Ba2Ho1U1O6,10,0,225,169.8491761930532,7.563233697718171,16.98491761930532,5.22356714,-8.607728099000001,-3.666247560499999,0.0,0.8731999999999991,1.0
mp-20546,Ba4In4O10,18,3,46,310.08967785474204,6.2577470899305965,17.227204325263447,3.07737615,-6.210847717222224,-2.422391895925927,1.0,0.919,1.0
mp-22841,Ba16In16S40,72,3,61,2041.8946102537304,4.323902580304948,28.359647364635144,2.4523641,-4.920540953194442,-1.581863708287033,1.0,1.8678999999999992,0.0
mp-1523085,Ba8In4Bi4O24,40,0,201,639.9805500547719,7.207465052210091,15.999513751369298,3.13946406,-6.3029089055,-2.285416509166667,1.0,0.208,1.0
mp-864638,Ba4In2Bi2S10,18,3,36,508.7964737048264,4.952783993877049,28.26647076137924,3.1203671,-4.984105758888889,-1.519777339907407,0.0,1.452899999999999,0.0
mp-1105202,Ba4In2Bi2Se10,18,3,36,572.0137292759063,5.766765127410662,31.778540515328125,2.6467532,-4.577538233333333,-1.470125419820601,0.0,1.061,0.0
mp-555212,Ba4In2Br2O6,14,1,129,292.8269888193814,5.867765636048222,20.91621348709868,2.35183911,-5.858184360714287,-2.561333907380952,0.0,1.8236999999999992,1.0
mp-558243,Ba4In2Cl2O6,14,1,129,280.7862199086928,5.593632403733022,20.056158564906628,2.61771162,-5.9732427221428575,-2.64616423095238,0.0,1.914499999999999,1.0
mp-1228360,Ba2In1Cu1O4,8,1,123,147.31341871909677,5.827877794885125,18.414177339887097,3.28503349,-6.036271109999999,-2.225249320833332,0.0,1.110799999999999,1.0
mp-1106089,Ba4In2Ga2O10,18,3,46,294.7278335288981,6.075770786069299,16.373768529383227,2.80498358,-6.38903564388889,-2.570699569351852,0.0,1.414499999999999,1.0
mp-19956,Ba4In2O6F2,14,1,129,253.5510420304306,5.978945637296668,18.11078871645933,2.6603006,-6.20251072,-2.866102289523809,0.0,2.046699999999999,1.0
mp-1207040,Ba2In1Os1O6,10,0,225,145.03396392863104,7.736281627048708,14.503396392863104,4.86686683,-7.070979681,-2.319753972666666,1.0,0.4224,1.0
mp-616601,Ba6In3Ru3O18,30,6,164,435.7091518642018,6.706101465350557,14.523638395473393,3.9998628,-6.838986333666668,-2.2830571143333342,0.0,0.3628,1.0
mp-1206536,Ba2In1Sb1O6,10,0,225,147.91324889979737,6.817012593862324,14.791324889979736,4.01500058,-6.577128483,-2.535739393666667,1.0,0.523999999999999,1.0
mp-1189339,Ba4In2Sb2Se10,18,3,36,563.9965038747204,5.335144885663771,31.33313910415113,3.13955362,-4.564566886666666,-1.430602192042823,0.0,0.768,0.0
mp-553874,Ba2La1Ag5S6,14,4,12,342.8673306258545,5.546750588830426,24.490523616132464,3.26453311,-4.685827057857142,-1.270198287738093,1.0,1.4647,0.0
mp-1078409,Ba2La1Bi1O6,10,4,12,176.63293497795286,6.755011726737,17.663293497795287,2.95182626,-7.023347214,-2.788171481500001,0.0,1.827799999999999,1.0
mp-12911,Ba2La1Ru1O6,10,6,148,161.3447028854519,6.284483432539392,16.13447028854519,3.946593479999999,-7.554034182,-2.780421626499999,1.0,0.243699999999999,1.0
mp-573677,Ba4Li6Ta2N8,20,4,15,316.9014661808575,5.580010887120404,15.845073309042874,2.14708325,-6.4652205325,-0.9867448322333332,0.0,2.397,0.0
mp-17491,Ba8Li4Ge12,24,3,70,676.7184640256156,4.90286118051776,28.196602667733984,2.47206973,-3.833841946250002,-0.564515894305557,0.0,0.0776,0.0
mp-10555,Ba4Li2Re2N8,16,4,11,285.4193577634219,6.095159020932201,17.838709860213868,2.23738378,-7.406872821875,-0.963360580104167,1.0,1.7902,0.0
mp-6270,Ba2Li1Re1O6,10,0,225,139.62374972423694,6.705229380643536,13.962374972423694,1.90746988,-7.529896314,-2.741621015583333,0.0,1.8198,1.0
mp-15521,Ba8Li4Si12,24,3,70,652.0497330148695,3.726775290683884,27.168738875619564,3.65202046,-4.064683773333333,-0.394212633888888,1.0,0.0921,0.0
mp-1078394,Ba2Lu1Bi1O6,10,6,148,159.89298267674369,7.83673620626421,15.989298267674368,2.54034693,-7.058071262999999,-2.8643274956666662,1.0,1.4518,1.0
mp-12644,Ba2Lu1Nb1O6,10,0,225,148.2991313028161,7.149695836572776,14.82991313028161,2.02164557,-8.321144276000002,-3.506273435666669,1.0,2.847899999999999,1.0
mp-6145,Ba2Lu1Ru1O6,10,0,225,145.85184058720668,7.362606376817797,14.585184058720667,3.15688185,-7.619908671999999,-2.887728081666668,1.0,0.0556,1.0
mp-1206047,Ba2Lu1U1O6,10,0,225,161.67256934697397,8.048831767862852,16.1672569346974,4.94650198,-8.633166069000003,-3.69928473166667,0.0,2.0388,1.0
mp-643370,Ba2Mg1H6,9,6,164,128.49410890931205,3.941623826893574,14.277123212145783,0.90391425,-3.416865068888888,-0.545818565833332,0.0,2.8864,0.0
mp-1205825,Ba2Mg1Mo1O6,10,0,225,138.4620059485812,5.887181712627688,13.84620059485812,4.98940118,-7.432841028999999,-2.8326574255,0.0,2.2648,1.0
mp-13811,Ba2Mg1U1O6,10,0,225,152.3566554679817,6.898912109033113,15.23566554679817,3.37398725,-8.102004258,-3.457244664499998,0.0,2.0335,1.0
mp-558651,Ba8Mn4As8O32,52,4,14,885.7619779895323,4.555002401228121,17.03388419210639,1.46054036,-7.220909787692308,-2.457532997148542,0.0,2.7135,1.0
mp-1045769,Ba4Mn4Cu2F28,38,4,15,575.2010658235529,4.122781381113651,15.136870153251392,0.19946311,-5.757398973947368,-2.965024216887477,0.0,1.1457,0.0
mp-558695,Ba16Mn16Si16O72,120,3,61,1773.778017435521,4.378947199814135,14.781483478629342,1.92539766,-8.11088899225,-2.941271287640806,0.0,1.9934,1.0
mp-560955,Ba4Mn6Se12O36,58,4,14,933.1335901977004,4.275204179118736,16.088510175822417,1.50959309,-6.714238838103448,-1.839660813546745,1.0,0.9861,1.0
mp-1192147,Ba8Mn4Ge8O28,48,1,113,835.1175302076762,4.667687832209732,17.398281879326586,1.37135355,-7.356169225416667,-2.616023565660919,0.0,2.434299999999999,1.0
mp-20399,Ba4Mn2Mo2O12,20,0,225,287.70721948597884,6.020136434621891,14.385360974298942,3.64419988,-7.9829948435,-2.6296567122931043,0.0,1.265399999999999,1.0
mp-27443,Ba8Mn4O12,24,4,15,436.2071226942557,5.749592983414363,18.17529677892732,3.11511451,-7.202922722083334,-2.56228135757184,0.0,1.4139,1.0
mp-16905,Ba8Mn4Te12,24,3,62,903.6074693465682,5.236587175681508,37.65031122277368,3.41147663,-5.198673073333334,-1.460359264655172,0.0,0.825199999999999,0.0
mp-18992,Ba8Mn4Te4O24,40,0,225,579.9485742530934,6.335672264026129,14.498714356327335,3.84469454,-7.063599450000001,-2.480495740459771,0.0,0.9485999999999992,1.0
mp-19085,Ba4Mn2W2O12,20,0,225,290.591241413471,6.964970701094756,14.529562070673547,3.25729028,-8.311566699,-2.746980555793102,0.0,2.2267,1.0
mp-1018099,Ba2N1Cl1,4,6,166,113.09700851799626,4.758777158855021,28.274252129499065,2.66562085,-5.050186032500001,-1.543993426250001,1.0,1.1077,0.0
mp-1091394,Ba2Na1I1O6,10,0,225,151.69989003431616,5.697991667878675,15.169989003431615,2.80780736,-5.847122505,-2.207977574637931,1.0,2.2417,1.0
mp-6798,Ba2Na1Re1O6,10,0,225,149.30637579544822,6.448879842653157,14.930637579544822,1.9235851,-7.419707454999999,-2.688152365387931,0.0,1.8688,1.0
mp-16998,Ba2Nb6Te2O21,31,4,12,478.9238494391777,4.934837791238656,15.44915643352186,1.28761649,-8.48490833483871,-2.85137372155914,1.0,2.1563,1.0
mp-31627,Ba8Nb4Cr4O24,40,2,194,549.3689767052589,6.233302093412124,13.734224417631472,3.09879613,-8.384206667000011,-3.056199825000012,0.0,1.582399999999999,1.0
mp-1021504,Ba4Nb2Fe2O12,20,0,225,277.2672110319684,6.221341093607607,13.86336055159842,2.69969661,-8.1052579365,-2.895553720499999,1.0,1.455,1.0
mp-17024,Ba8Nb4N12,24,4,15,494.1924590981745,5.504935378398147,20.59135246242393,2.34074571,-7.650053048333333,-1.157705022500001,0.0,1.9547999999999992,0.0
mp-1205833,Ba2Nb1Rh1O6,10,0,225,138.59031925378656,6.787146106307911,13.859031925378655,3.79062202,-7.832356669000001,-2.733223787000001,0.0,0.8889,1.0
mp-546321,Ba2Nd1Bi1O6,10,4,12,172.8059508590449,6.9558892947477045,17.28059508590449,2.13820503,-6.982322426,-2.763932660750001,0.0,1.683,1.0
mp-1205363,Ba4Nd2Ga2Se10,18,5,2,562.8412374724637,5.212666251194766,31.26895763735909,1.87842689,-5.139866392222222,-1.905005200746528,0.0,1.6574,0.0