material_id,composition,nsites,crystal_system,space_group,volume,density,density_atomic,efermi,energy_per_atom,formation_energy_per_atom,is_gap_direct,band_gap,is_oxide
mp-866311,Bi3Br1O4,8,1,123,144.8318707646196,8.837934474295418,18.10398384557745,4.24696889,-5.767499852499999,-1.630138166874999,0.0,0.9257999999999992,1.0
mp-2756056,Bi6Cl2O8,16,1,123,279.35394893191886,8.635653558288208,17.45962180824493,5.01816972,-27.0621495175,-1.370231815937501,0.0,0.6355000000000001,1.0
mp-2755713,Bi12I4O16,32,3,63,615.4973836739706,8.825777241063026,19.23429323981158,5.19917457,-29.2479361521875,-1.25523784125,0.0,1.075599999999999,1.0
mp-2741710,Bi18P6O42,66,4,12,969.2237807743422,7.914375958101452,14.685208799611246,4.26416113,-22.353298248636364,-1.781294599816016,0.0,2.3229,1.0
mp-775485,Bi18P6O42,66,4,8,1035.7232495094706,7.406226897207935,15.692776507719252,3.81531352,-6.782476553636363,-2.080539872694806,1.0,2.5842,1.0
mp-30304,Bi6Sb2O14,22,5,2,326.5701562513721,8.752918572910259,14.844098011426006,4.95989099,-6.364579114545457,-1.7795944595454571,0.0,2.168599999999999,1.0
mp-559422,Bi32Au16O72,120,3,61,1884.4066939830104,9.685087639121347,15.703389116525086,4.60721022,-5.745744655500001,-1.303107969833335,0.0,0.7795000000000001,1.0
mp-23356,Bi16B8O36,60,4,14,810.4784090521937,8.207958604287226,13.507973484203228,4.02982584,-6.9832806125000015,-2.08657595738889,1.0,2.8354,1.0
mp-1196273,Bi32B8P8O80,128,3,61,1832.4078151904787,7.522962852444902,14.315686056175617,3.74439307,-6.9738191684375,-2.152905881800596,0.0,2.8219000000000003,1.0
mp-23544,Bi16Br8O20,44,4,4,893.5791885746245,7.996095106602252,20.30861792215056,2.98823076,-5.574506965454547,-1.613249207727276,0.0,2.651699999999999,1.0
mp-30130,Bi16I8O20,44,4,4,965.481471679674,8.04729385047113,21.94276071999259,3.8959387,-5.435704172499997,-1.494979854772725,0.0,2.3625,1.0
mp-30303,Bi8O14,22,5,2,341.0743732873468,9.229974444804135,15.50338060397031,4.42867342,-6.132462206818184,-1.569201818181821,0.0,0.9108,1.0
mp-541772,Bi8Ru2Br4,14,4,12,470.7517594555467,7.737745202004868,33.62512567539619,3.33151896,-4.484801556428571,-0.469311149285715,0.0,0.5357000000000001,0.0
mp-541771,Bi8Ru2I4,14,1,87,513.0449668351147,7.708372345591589,36.64606905965105,3.63592216,-4.305319639285707,-0.322096066428565,0.0,0.165,0.0
mp-31289,Bi20N4O40,64,4,14,1054.0651437893805,7.680874616374393,16.46976787170907,2.74099547,-6.328253720156251,-1.499000011093752,0.0,2.6161,1.0
mp-1214311,Bi6As4Pb1O20,31,5,2,476.5556200810154,7.25031414781388,15.37276193809727,6.00749579,-6.429819547741936,-1.762317510322582,0.0,2.9694000000000003,1.0
mp-554249,Bi24Cl12O28F4,68,3,62,1244.7389941750685,7.957507519910277,18.304985208456888,6.55676239,-5.640594412205882,-1.791452431617647,0.0,2.8698,1.0
mp-570417,Bi48Pt8Cl80,136,3,62,4568.806629293194,5.243866018703898,33.59416639186173,2.61796418,-3.973214399485293,-1.155757506544118,0.0,1.612499999999999,0.0
mp-570053,Bi32As4Au4Cl36,76,4,14,2304.117468451485,6.523073147792586,30.31733511120375,2.75962472,-3.837942532236842,-0.906302310526317,0.0,1.385199999999999,0.0
mp-680182,Bi72Ir16I24,112,3,62,3861.0409001122407,9.103738281701874,34.47357946528786,4.81088086,-4.334293756428571,-0.244349828214287,0.0,0.5545,0.0
mp-561068,Bi2As2O8,12,1,88,151.58198113378094,7.622289572065359,12.631831761148412,4.06930201,-6.49651725125,-1.771183774166667,0.0,2.8719,1.0
mp-567414,Bi4Au4Cl24,32,5,2,914.6315312138504,4.49281405725419,28.58223535043282,-0.54235465,-18.981739010625,-0.731505600624998,0.0,1.5926,0.0
mp-556601,Bi4B4Pb4O16,28,4,14,430.26429607165056,7.57958699538571,15.366582002558948,3.37485739,-6.9621135971428565,-2.094411144166665,0.0,2.8773,1.0
mp-2913080,Bi4Br12,16,4,14,691.496424150713,4.309906649201264,43.21852650941956,-1.29781382,-3.37273185625,-1.172513377500001,0.0,2.8826,0.0
mp-23072,Bi2Br2O2,6,1,129,129.50609729692894,7.81849613632773,21.58434954948816,2.66047785,-5.047113350000004,-1.555466066666671,0.0,2.2251,1.0
mp-22939,Bi2Cl2O2,6,1,129,113.5857853857584,7.614664760301017,18.93096423095973,3.42325128,-5.257924419999999,-1.695745048333333,0.0,2.5681000000000003,1.0
mp-27743,Bi1F5,6,1,87,87.48976145342537,5.769338760918803,14.581626908904228,-3.29028788,-14.226718183333332,-1.871315934166666,0.0,1.8137999999999992,0.0
mp-22849,Bi2I6,8,6,148,367.81189633263233,5.324512983950062,45.97648704157904,0.56637604,-2.88190495625,-0.7663869175000011,0.0,2.5349,0.0
mp-22987,Bi2I2O2,6,1,129,154.0010489653947,7.58848827566523,25.666841494232447,4.12884893,-4.788936188333333,-1.334933545,0.0,1.472999999999999,1.0
mp-1191266,Bi4I4O16,24,3,29,356.6571781190205,7.447156588693821,14.860715754959188,4.1284668,-5.436637793333332,-1.235655969166666,0.0,2.3939999999999992,1.0
mp-1102836,Bi4Ir4S4,12,0,198,240.53229907895656,11.964283284095847,20.04435825657972,7.3925144,-6.041010856666666,-0.4187348375,0.0,0.6889999999999991,0.0
mp-1103228,Bi4Ir4Se4,12,0,198,255.70916908845527,12.472296142674065,21.30909742403794,6.69821161,-42.06413978166667,-0.339743973020835,0.0,0.5346000000000001,0.0
mp-30012,Bi4Kr4F28,36,4,14,614.7458740355426,4.600295087345924,17.07627427876507,-3.61094235,-11.589051282777778,-1.259169145185184,0.0,2.3847,0.0
mp-557993,Bi4O8,12,4,15,170.96578385970207,9.362232999004997,14.247148654975172,3.93896558,-6.055082899999999,-1.459764126666667,0.0,1.1596,1.0
mp-27133,Bi8P8S32,48,3,73,1180.3468529106285,4.144097131236569,24.59055943563809,3.01687883,-16.974261763958335,-0.3668706996627,0.0,1.5094,0.0
mp-1227444,Bi1Pb1Br1O2,5,1,107,106.06848147333676,8.267326653823874,21.21369629466736,3.93511941,-5.41543906,-1.588329075,0.0,1.510199999999998,1.0
mp-23084,Bi2Pb2Cl2O4,10,3,63,204.9552390200156,7.836737092505119,20.49552390200156,3.72168911,-5.549365916,-1.679936678,0.0,2.073699999999999,1.0
mp-1227389,Bi1Pb1I1O2,5,1,107,115.18327577015268,8.29069059039695,23.036655154030537,4.48073282,-5.257524144,-1.4530009430000002,0.0,1.7164,1.0
mp-1103098,Bi4Rh4S4,12,0,198,240.8884546766583,9.483956501092914,20.074037889721527,6.757699,-5.69185743,-0.5609568475000001,0.0,0.340399999999999,0.0
mp-1101765,Bi4Rh4Se4,12,0,198,255.18630738971984,10.17319295238303,21.265525615809988,6.21358843,-32.79740730416667,-0.480719768854167,0.0,0.237999999999999,0.0
mp-23324,Bi4S4Br4,12,3,62,343.1261298289098,6.212864259187372,28.59384415240915,2.0326896,-4.108052325833337,-0.8862721883333371,0.0,2.032,0.0
mp-23318,Bi4S4Cl4,12,3,62,325.1120564496465,5.648961777257308,27.09267137080388,2.38971739,-4.305062416666665,-1.012750190833332,0.0,1.9636,0.0
mp-1227290,Bi1Sb1,2,6,160,68.25111255856382,8.0468630402421,34.12555627928191,5.464771,-42.11122011,-0.006925372499999,0.0,0.1101,0.0
mp-1237522,Bi4Sb12P24O96,136,6,148,1871.552443788226,4.060380516211872,13.761415027854602,1.806309199999999,-7.281291601691176,-2.354205033981092,1.0,2.2741,1.0
mp-1227565,Bi1Sb3F20,24,4,5,334.11800083725586,4.742437219674122,13.921583368218997,-3.64850244,-4.740498266249999,-2.467411369166666,0.0,2.1691,0.0
mp-23018,Bi2Sb2O8,12,4,15,156.6488127381902,8.368756310551321,13.054067728182517,5.05287067,-6.476595608333327,-1.8414490133333272,0.0,2.4246,1.0
mp-610491,Bi4Se4Cl4,12,3,62,339.9512584879206,6.318639642273092,28.32927154066005,1.9466165,-27.05618035666667,-0.734089398854166,0.0,1.8404,0.0
mp-33723,Bi1Te1Br1,3,6,156,109.50015781714691,6.315868676503069,36.500052605715645,2.42347249,-3.712127129999999,-0.8220315505555551,0.0,1.2364,0.0
mp-28944,Bi2Te2Cl2,6,2,186,208.0234245589868,5.939484902623059,34.67057075983113,1.97387339,-30.67963752333333,-0.655658539166665,0.0,1.5135,0.0
mp-22965,Bi1Te1I1,3,6,156,120.86064635924215,6.367951492873749,40.28688211974738,3.23849884,-3.489545913333335,-0.637094973888891,0.0,1.2325,0.0
mp-1227372,Bi4Te4Ir4,12,0,198,283.09831364201426,12.406838171800269,23.59152613683452,7.48770385,-45.7340918925,-0.307808057500011,0.0,0.460799999999999,0.0
mp-1195032,Bi4Te4N4O24,36,4,14,499.865263148237,5.934153884416214,13.88514619856214,2.70833398,-6.324636518055556,-1.318038298240741,0.0,2.8005,1.0
mp-863374,Bi4Te4O16,24,4,9,333.26860561717393,7.983655309970392,13.88619190071558,4.87694722,-6.084692797916666,-1.613828760694444,0.0,2.2024,1.0
mp-1227426,Bi4Te4Rh4,12,0,198,283.1719658848922,10.308697104098416,23.597663823741016,7.12877205,-36.44435602166667,-0.425780460000003,0.0,0.162,0.0
mp-28933,Br16O24,40,4,14,764.8048299722651,3.609499311286582,19.12012074930663,-0.71852426,-3.8222503535,-0.198695136500001,1.0,1.7587000000000002,1.0
mp-554129,Br12N4O16F40,72,3,18,1202.4976260514795,2.804350602104884,16.70135591738166,-0.83877014,-4.00177791625,-1.102917631805555,1.0,1.5015,1.0
mp-1066781,Br2Cl2,4,3,36,158.36993217183098,2.419080471638261,39.59248304295775,-1.64777105,-2.1023061725,-0.359564575,0.0,1.783,0.0
mp-1524139,Br2Cl2,4,3,63,123.10144484216356,3.11214552114122,30.77536121054089,0.23788822,-9.7255816525,-0.019922322500001,0.0,1.7759,0.0
mp-23297,Br2F6,8,3,36,125.08250317300543,3.634824695074091,15.63531289662568,-1.38251485,-3.08527277625,-1.24064686125,0.0,2.211,0.0
mp-29526,Br4N4O12,20,3,19,322.4671988112441,2.923029358854789,16.123359940562203,-1.33236572,-5.4999319555,-0.5361104965000001,0.0,2.208,1.0
mp-36262,Br2O4F2,8,4,9,131.8477813243962,3.297235032628113,16.480972665549526,-2.1162068,-4.000796882499999,-0.639116652499999,0.0,2.897999999999999,1.0
mp-28131,C4Se16Br8,28,3,33,803.0790681073257,4.033357883057904,28.681395289547343,0.41408659,-4.066029178214285,-0.282285682053571,0.0,1.5997,0.0
mp-1214997,C72N84Cl36,192,4,15,3078.783984783613,1.789366467017301,16.03533325408132,-0.1486518,-7.625800694010418,-0.170452845885417,1.0,2.7092,0.0
mp-680422,C16Br64,80,4,15,2884.98419824968,3.054042881547761,36.062302478121,-0.71639084,-3.371722473875,-0.216432147375,1.0,2.9265,0.0
mp-27814,C1S14,15,6,166,409.9997943468919,1.866773689908365,27.33331962312613,-0.35151479,-4.882615052,-0.404901756166664,0.0,2.5569,0.0
mp-1047036,Ca2Ag4O8,14,1,88,177.87860175209863,5.971042213470892,12.705614410864188,1.39296066,-5.269659326428576,-1.34347086119048,0.0,0.9283,1.0
mp-36988,Ca2Al4Se8,14,3,66,356.36504249148123,3.8198109252927663,25.45464589224866,2.44186293,-12.510186714285714,-1.4032251023214282,0.0,2.8458,0.0
mp-28153,Ca1Au2F12,15,1,115,241.41027274108683,4.553507711608064,16.094018182739124,-3.41634627,-11.300718974666667,-1.586015681333335,1.0,1.5298999999999991,0.0
mp-2898,Ca2Au4O8,14,1,88,182.7984316990949,9.047812470496794,13.057030835649638,2.47158167,-5.515531293571423,-1.466215879285709,1.0,1.6618,1.0
mp-10289,Ca2B4C4,10,1,140,105.94460190115171,2.687135181770838,10.594460190115171,4.51458841,-7.095505554000002,-0.331162672666667,0.0,0.475099999999999,0.0
mp-1018630,Ca1Be2As2,5,6,164,88.55295877389277,3.899381088212408,17.710591754778555,4.47206042,-4.371370009999999,-0.6064358749999991,0.0,0.6613999999999991,0.0
mp-11918,Ca2Be4N4,10,1,140,105.70243697106558,2.705681996929731,10.57024369710656,3.21601932,-6.480731049000002,-1.248534829000001,0.0,2.0774,0.0
mp-1017548,Ca1Be2P2,5,6,164,80.31762422580523,2.481989860712366,16.063524845161048,5.24782548,-4.791342552,-0.7282680198571421,0.0,0.7359,0.0
mp-558751,Ca8Bi16O32,56,4,15,985.1659924960494,7.039315956824002,17.59224986600088,2.74347346,-6.365616106785713,-2.140257175357141,0.0,2.6093,1.0
mp-7067,Ca1Cd2As2,5,6,164,121.58196997478744,5.664468887529235,24.316393994957487,3.04143828,-3.222472063999999,-0.569298998999997,1.0,0.216399999999999,0.0
mp-9570,Ca1Cd2P2,5,6,164,112.57366457698612,4.821226034196599,22.514732915397225,3.61950738,-3.498724354000001,-0.5474108918571421,1.0,0.8195999999999991,0.0
mp-7430,Ca1Cd2Sb2,5,6,164,145.39760543971062,5.806500524459065,29.079521087942123,4.08951227,-2.954466113999999,-0.517741565999997,0.0,0.102,0.0
mp-17544,Ca4Co8O16,28,3,62,261.4044132856434,5.639435697074167,9.335871903058692,4.24292736,-7.030624778214284,-1.878585158214284,1.0,1.6139,1.0
mp-1047437,Ca2Cu4O8,14,1,88,153.46066195945775,5.002752181970563,10.961475854246984,2.85246799,-5.995365107857142,-1.710242645,0.0,0.6713,1.0
mp-1194059,Ca4Er8S16,28,3,62,647.866081916809,5.155460711285895,23.13807435417175,3.02589171,-17.693664061071427,-2.403784009345238,0.0,1.5692,0.0
mp-675750,Ca2Ga12Te20,34,4,5,1125.0132650162248,5.120056118973085,33.08862544165367,3.31010631,-19.989817277058822,-0.585864777058823,0.0,0.7370000000000001,0.0
mp-1070099,Ca1Ga2As2,5,6,166,114.82741923064728,4.763035749833185,22.96548384612945,3.45701372,-4.107697318,-0.6272899199999991,0.0,0.681,0.0
mp-1078849,Ca2Ga4P4,10,2,194,209.5319053090972,3.827320698314965,20.95319053090972,4.72201873,-10.382245811,-0.796646166190475,0.0,0.1778,0.0
mp-14423,Ca8Ga16S32,56,3,70,1231.6317139380194,3.319741447321219,21.99342346317892,2.69081642,-4.920475589821429,-1.404014133392856,0.0,2.747099999999999,0.0
mp-13873,Ca8Ga16Se32,56,3,70,1427.3687597505543,4.610280383779697,25.48872785268848,1.97668889,-13.62580609375,-1.172936590357143,1.0,1.922499999999999,0.0
mp-644307,Ca4H16N8,28,4,14,270.6723983345586,1.769863872689547,9.666871369091378,0.52171418,-6.277731212142856,-0.6896962625,0.0,2.6985,0.0
mp-1194276,Ca4Ho8S16,28,3,62,655.3173259853222,5.049634867523821,23.404190213761503,3.0106416,-17.39749735107143,-2.405929085535713,0.0,1.552699999999999,0.0
mp-1079772,Ca2In4P4,10,2,194,248.5220468892759,4.432097066506646,24.8522046889276,5.778602699999999,-14.799247138000002,-0.759321721190477,1.0,0.4085,0.0
mp-505362,Ca4Lu8S16,28,3,62,629.4669840689699,5.468823146604424,22.480963716748924,3.12143716,-18.87700824607143,-2.400143903869048,0.0,1.5804,0.0
mp-9564,Ca1Mg2As2,5,6,164,116.81208386477462,3.390833919729612,23.362416772954923,3.35493344,-3.84698178,-0.925624785,0.0,1.2605,0.0
mp-29208,Ca1Mg2Bi2,5,6,164,151.72398020669564,5.5450043183673525,30.34479604133913,3.94999074,-3.125955780000004,-0.516634074000004,1.0,0.3886,0.0
mp-9565,Ca1Mg2Sb2,5,6,164,142.56862600204394,3.8693250942121313,28.51372520040879,4.20916408,-3.480408428000001,-0.77549995,0.0,0.7931,0.0
mp-11168,Ca3P6Ir6,15,6,154,268.6010405428199,9.02213605303809,17.90673603618799,6.92787877,-26.969415418,-1.017184773190479,0.0,0.494299999999999,0.0
mp-17998,Ca4Rh8O16,28,3,62,304.4467683733114,6.760837807742771,10.873098870475406,5.12292689,-7.010800444285709,-1.792791924285709,0.0,0.823399999999999,1.0
mp-9125,Ca1Sb2O6,9,6,162,120.2226712525426,5.243032151053256,13.358074583615846,3.05302669,-6.809987753333334,-2.370946821111111,0.0,2.6943,1.0
mp-17597,Ca4Sc8S16,28,3,62,583.7191536896634,2.93863183336667,20.84711263177369,3.95506285,-11.10525203892857,-2.251642790535714,0.0,1.286299999999998,0.0
mp-1194132,Ca4Tm8S16,28,3,62,641.2635030406094,5.243245762081028,22.90226796573605,3.13495103,-18.04018402642857,-2.408700225178571,0.0,1.567899999999999,0.0
mp-18642,Ca4Y8S16,28,3,62,665.6042868605462,3.454275226819853,23.771581673590934,3.05978268,-13.807282658571427,-2.406498094464286,1.0,1.5361,0.0
mp-9571,Ca1Zn2As2,5,6,164,104.4424662256155,5.099458017771371,20.8884932451231,3.57802312,-3.428630062000002,-0.6555636290000021,0.0,0.3873,0.0
mp-1029258,Ca1Zn2N2,5,6,164,61.61277667789498,5.360849603333454,12.322555335578995,3.68786638,-4.762598782,-0.5222702640000001,1.0,0.6376000000000001,0.0
mp-9569,Ca1Zn2P2,5,6,164,95.13198596757287,4.064308802915232,19.026397193514576,4.1873473,-3.771104786000001,-0.6998979558571421,0.0,0.875,0.0
mp-1214215,Ca22Al2Sb18,42,3,45,1249.4495216673984,4.156311906099654,29.748798134938056,5.5469076600000005,-4.058989809047618,-1.060504777142854,1.0,1.176599999999999,0.0
mp-1214384,Ca22Ga2Sb18,42,3,45,1247.1055707590783,4.277945493071594,29.69298977997806,5.36613308,-4.021888311666673,-1.057568984880958,0.0,1.0841,0.0
mp-29722,Ca22In2Sb18,42,3,45,1265.6504921679227,4.333592653083109,30.134535527807685,4.69291544,-4.006524724047619,-1.055011220079364,0.0,0.8472000000000001,0.0
mp-1198370,Ca44Sn12C32,88,4,14,1953.3615575674824,3.036782609760906,22.19729042690321,3.89929658,-5.253561930454546,-0.348123831136363,1.0,0.6589,0.0
mp-567799,Ca56Al4Sb44,104,1,142,3151.6120345580803,4.062148074097154,30.30396187075077,4.92949548,-4.04590373576923,-1.075019589999998,1.0,0.5897,0.0
mp-568790,Ca56Ga4As44,104,1,142,2626.390529380468,3.679583223171533,25.253755090196805,3.44788096,-4.3159546875,-1.1437299875,1.0,0.597399999999999,0.0
mp-532160,Ca56Mn4P44,104,3,45,2403.495655777625,2.643993156133453,23.11053515170793,3.91188717,-4.776517994711538,-1.053032518134708,0.0,0.0095,0.0
mp-734733,Ca19Mg8H54,81,0,204,898.6428411237573,1.8669562936160424,11.094356063256264,0.90181539,-3.454301708641975,-0.5593739860185181,0.0,2.9263,0.0
mp-1214964,Ca42Cd8Bi36,86,4,12,2733.565842329271,6.138931213900644,31.78564932941013,4.25364765,-3.4659246266279062,-0.7687558866279071,0.0,0.152,0.0
mp-1194550,Ca42Zn8As36,86,4,12,2100.188055789882,3.8771899060362953,24.42079134639398,3.37145668,-4.131416094767442,-1.079816617906977,1.0,0.9742,0.0
mp-1194667,Ca42Zn8Sb36,86,4,12,2479.506976624172,4.413296587775044,28.831476472374085,4.35810602,-3.834070302209302,-1.008986715232557,1.0,0.6327,0.0
mp-1196891,Ca8Al8Sn8O36,60,3,60,763.4642900505067,4.485154432472124,12.724404834175113,3.44166436,-7.225575339500001,-2.955365727833334,1.0,2.8373,1.0
mp-1251643,Ca8Al4V4O20,36,3,46,446.55240729843234,3.54121537768324,12.404233536067563,4.6182869,-7.794739939444445,-3.174685863333334,0.0,1.610399999999999,1.0
mp-581887,Ca4As8Xe10F68,90,4,14,1573.7841209441124,3.549974828054451,17.48649023271236,-3.7409054,-4.112633515888889,-2.158332593888889,0.0,2.868699999999999,0.0
mp-28554,Ca2As1I1,4,6,166,124.72406056853306,3.754225457232024,31.181015142133266,3.21872627,-4.05167462,-1.500340893124999,0.0,1.5566,0.0
mp-10233,Ca8B4N8F4,24,3,62,340.9576358270322,2.687949105707024,14.206568159459676,2.47755298,-6.959736347083333,-2.07956978111111,1.0,2.9265,0.0
mp-867799,Ca2Bi1Au1,4,0,225,109.39602278856002,7.378631780561953,27.349005697140004,4.55891106,-31.71245728,-0.9215019562500012,1.0,0.0002,0.0
mp-23009,Ca2Br1N1,4,6,166,81.78438172411364,3.534226822416866,20.44609543102841,3.02479034,-5.1318830375,-1.635277027499999,1.0,2.4254,0.0
mp-1095180,Ca4Cd2As4,10,3,36,255.4798389233185,4.451118462408131,25.547983892331853,3.05689661,-3.782338068999999,-0.9200470659999992,1.0,0.8529999999999991,0.0
mp-1078908,Ca4Cd2P4,10,3,36,238.46919164893384,3.544535939395362,23.846919164893382,3.41336496,-4.052944775,-0.8925133748571411,1.0,1.2927,0.0
mp-569267,Ca8Cd4Sb8,20,3,62,598.468777708218,4.8399483943635015,29.9234388854109,4.30574164,-3.5005151455,-0.854672659499999,0.0,0.318999999999999,0.0
mp-552051,Ca8Co4Te4O24,40,4,14,486.8205909205243,4.948464470262199,12.170514773013108,4.04800759,-6.7523075425000005,-2.354738702166666,0.0,1.6102999999999992,1.0
mp-19161,Ca4Co2W2O12,20,4,14,242.2213679890244,5.743855897367988,12.11106839945122,3.40898374,-7.995985204999999,-2.616933931,0.0,1.2029,1.0
mp-772813,Ca8Cu8O20,36,3,33,464.7531201547575,4.105246622350272,12.909808893187709,2.27155718,-6.175546773611112,-2.070055870833334,1.0,0.9862,1.0
mp-22113,Ca8Fe8O20,36,3,62,445.0868072505816,4.056789948641229,12.363522423627266,3.65982951,-7.532973270833334,-2.456190248055555,1.0,0.8630999999999991,1.0
mp-1205964,Ca2Fe1H6,9,0,225,85.46202290219544,2.760024956902113,9.49578032246616,2.1178021,-4.301175269999992,-0.650928647499992,0.0,1.500299999999999,0.0
mp-20431,Ca8Fe4Sb4O24,40,4,14,483.28205134360906,4.861988821357548,12.082051283590229,3.42939629,-7.17543798475,-2.54563916075,0.0,1.4857,1.0
mp-1009755,Ca2Ge1,3,0,225,92.82338181597504,2.733403182004593,30.94112727199169,2.24776906,-10.031135463333332,-0.7149471366666661,0.0,0.5756,0.0
mp-540773,Ca8Ge4S16,28,3,62,714.7457781958501,2.611862746949705,25.52663493556608,1.78834108,-5.279912146071429,-1.681674162499999,0.0,2.5311,0.0
mp-1207196,Ca2H6Os1,9,0,225,94.46925569178532,4.859029058512585,10.496583965753924,1.72985672,-10.46427751,-0.7095563258333341,0.0,2.7001,1.0
mp-1079896,Ca2H6Ru1,9,0,225,93.0545451682951,3.341859280510864,10.339393907588343,1.635605749999999,-7.402281727777778,-0.7098598275000001,0.0,2.4473000000000003,0.0