material_id,composition,nsites,crystal_system,space_group,volume,density,density_atomic,efermi,energy_per_atom,formation_energy_per_atom,is_gap_direct,band_gap,is_oxide
mp-542974,K12Nd4P8S32,56,4,14,1541.3965441691798,2.499343880057696,27.52493828873536,1.55208695,-5.067913188571429,-1.346478889181121,1.0,2.4763,0.0
mp-555172,K6Nd6P8S32,52,4,15,1460.357807604311,2.699320278529005,28.083803992390592,1.6003606700000002,-5.457758001730768,-1.397211899916207,0.0,2.115,0.0
mp-1194761,K6Np2H12O16,36,4,14,433.81851894428087,3.738447574522768,12.050514415118911,-0.00686998,-6.215013599722222,-1.97631495961111,0.0,1.543,1.0
mp-1195299,K12Np4H8O24,48,3,56,765.6904834633427,3.923641516851296,15.951885072152974,0.56464706,-6.7222062339583335,-2.3205405875416663,1.0,1.1955,1.0
mp-9637,K12Np4O8F20,44,1,88,792.095146283868,4.035847144697138,18.002162415542454,0.84941027,-6.527842546136363,-3.272654115727272,1.0,0.317899999999999,1.0
mp-7897,K6P2,8,2,194,279.4265572665205,1.762222660666263,34.92831965831506,0.78756816,-7.099283895,-0.335066864806547,0.0,0.2117,0.0
mp-1568,K12P44,56,3,60,1556.0942020279083,1.954990444712359,27.78739646478408,2.10080887,-8.737015744642857,-0.374327798856292,0.0,1.9674,0.0
mp-866660,K6P4Au2Se16,28,4,9,844.5563844922149,3.963356570157007,30.162728017579106,1.04856222,-4.07427090392857,-0.8266830439132631,1.0,1.195799999999999,0.0
mp-568011,K6P10Ru2Se20,38,4,11,1069.8825977998006,3.609612507737481,28.15480520525791,2.54954356,-4.702028742894737,-0.7701869475474611,0.0,1.0744,0.0
mp-17989,K12P4S16,32,3,62,869.7100023506727,2.111906934700193,27.17843757345852,1.20437494,-4.4105985659375,-1.240220945486606,1.0,2.9158,0.0
mp-31313,K12P4Se16,32,3,62,996.0761101466044,3.094826013988132,31.127378442081387,2.29850493,-3.947488213125,-1.098334637595981,1.0,1.6858,0.0
mp-1237009,K6Pu2H12O16,36,4,14,430.441678193551,3.821784506943113,11.956713283154194,0.69093914,-6.235295927500001,-1.897144354055555,0.0,1.173099999999999,1.0
mp-28837,K12Rh4Cl24,40,4,14,1057.8427249097742,2.7182789990309,26.44606812274436,0.24229213,-9.5590283625,-1.648462980124999,0.0,1.6737000000000002,0.0
mp-1111856,K3Rh1F6,10,0,225,171.59917278242028,3.23391367209148,17.159917278242027,-0.21039827,-4.821429619999998,-2.597276491174997,1.0,2.1828,0.0
mp-14017,K6Sb2,8,2,194,344.29968994366044,2.305898100443326,43.03746124295756,0.77405333,-11.48855836125,-0.5482814765625,0.0,0.389399999999999,0.0
mp-9273,K3Sb2Au3,8,6,166,244.6388410500105,6.45996881931884,30.57985513125132,2.35417848,-28.20529924375,-0.5525112789062511,0.0,1.1046,0.0
mp-10543,K6Sb2O8,16,4,13,259.4760273694275,3.878820872837897,16.21725171058922,1.79557863,-5.29177405625,-1.877404752718749,0.0,1.8402,1.0
mp-1194266,K12Sb4S12,28,0,198,855.3135285803156,2.603468961599469,30.54691173501127,0.87661427,-10.846430236428573,-1.151272409955357,0.0,2.6955,0.0
mp-9781,K6Sb2S8,16,3,36,472.4687515549832,2.5819305051893613,29.52929697218645,0.74054899,-10.54379373625,-1.0561557528125,1.0,2.1851,0.0
mp-17538,K12Sb4Se12,28,0,198,952.3207225653646,3.319505607226225,34.01145437733445,0.70774906,-3.727331489999999,-1.154353655540177,0.0,2.3079,0.0
mp-8704,K6Sb2Se8,16,6,161,522.712124640676,3.525553037211479,32.66950779004225,0.64042548,-3.774844048124999,-1.086499508265623,1.0,1.4318,0.0
mp-5626,K12Sb4Te12,28,0,198,1148.0448661876726,3.5978188156901982,41.00160236384545,1.48571789,-3.376862196071428,-0.955001040607142,0.0,1.7167,0.0
mp-7657,K6Si2Te6,14,4,12,528.4115125522255,3.319625585658412,37.74367946801611,1.68595008,-15.71011245,-0.9843654023214292,0.0,1.7179,0.0
mp-560964,K6Sm2As4S16,28,4,15,817.3821372077731,2.738580489338498,29.19221918599189,1.13461522,-4.799865286428571,-1.188449792982142,0.0,1.6795,0.0
mp-1211845,K6Sn4P10S36,56,4,15,1497.7534941759095,2.409738315743884,26.7455981102841,1.81131096,-4.83629122,-0.8012521942844371,0.0,1.318299999999999,0.0
mp-18500,K6Sn8Au2,16,3,59,582.7874196630966,4.496781408025036,36.424213728943535,2.80118587,-3.174364094999998,-0.336079271468747,0.0,0.3972,0.0
mp-541875,K12Sn4Se12,28,4,14,947.2648952462156,3.315836380703758,33.83088911593627,0.79953219,-3.750445910357143,-1.194529416611607,0.0,1.627599999999999,0.0
mp-540619,K12Sn4Te12,28,4,14,1147.3715636443833,3.582273584643188,40.97755584444226,1.50078299,-3.407279059285711,-1.00247924453571,0.0,1.2441,0.0
mp-573202,K6Ta4Ag6S16,32,4,15,940.786556810464,3.739497254380773,29.399579900327,0.90260405,-5.450250775,-1.15252241071354,1.0,2.2901,0.0
mp-582161,K6Ta4Ag6Se16,32,4,15,1022.4983644290324,4.659180478261817,31.95307388840726,0.5195138,-5.018232947187499,-1.041728627822915,1.0,2.076,0.0
mp-1211748,K6Ta4As2S22,34,4,9,895.3075652696951,3.363809600858748,26.33257544910868,3.63363082,-5.697338194411764,-1.149100428024509,0.0,1.8918,0.0
mp-683905,K6Ta4As2Se22,34,4,9,1006.9052406097264,4.692403557791735,29.61486001793313,1.51951114,-5.156986675588236,-1.024450614393995,0.0,1.208699999999999,0.0
mp-1197797,K6Ta4Cu6S16,32,4,15,816.1702956181317,3.769404859454156,25.505321738066616,3.92236992,-5.756155859687501,-1.222877059463542,0.0,2.313,0.0
mp-1200105,K6Ta4Cu6Se16,32,4,15,900.0597475952162,4.802361134852518,28.126867112350507,1.2214819,-5.290405885312502,-1.078351130010419,0.0,1.9869999999999992,0.0
mp-558967,K12Ta8S44,64,4,14,1638.0326879170475,3.3733437881811392,25.594260748703867,1.798950759999999,-5.731578874375,-1.19095890586979,1.0,1.792,0.0
mp-9870,K3Ta3B2O12,20,2,189,270.0829113634813,5.372059817918613,13.504145568174064,0.83911712,-8.6421069185,-3.055646548604166,0.0,2.6703,1.0
mp-16855,K6Ta6Si4O26,42,2,189,579.2207750551319,5.299668847168907,13.790970834645996,1.30995089,-8.591515563809525,-3.154895519940477,1.0,2.9687,1.0
mp-18148,K12Ta4S16,32,3,62,948.6526164577024,2.986233383714418,29.6453942643032,0.43989265,-5.489412502812499,-1.512603130197914,1.0,2.8164,0.0
mp-1211873,K6Ti4P10S36,56,4,15,1452.843689690634,2.160345072457682,25.943637315904176,1.6735526200000002,-5.330110987678571,-1.017506236129675,0.0,1.1872999999999991,0.0
mp-1205449,K12Ti4Cl24,40,4,14,1094.8913482446665,2.292407689361638,27.37228370611666,2.10685887,-4.423289103499998,-2.185203305008332,0.0,0.061699999999999,0.0
mp-558320,K6U6Si4O26,42,2,190,684.8361867191019,5.312788736068447,16.30562349331195,4.24922672,-8.696232646904763,-3.341829393416667,0.0,0.483599999999999,1.0
mp-6785,K12U4O8F20,44,1,88,749.1755063234035,4.276179731481157,17.026716052804627,-1.03383156,-6.511691396818182,-3.407082027431817,0.0,2.713899999999999,1.0
mp-1181810,K12V8S16O72,108,4,4,1732.836655350177,2.435662981316877,16.04478384583497,-0.16314604,-6.863218359166666,-2.152897704787036,0.0,1.416499999999999,1.0
mp-556255,K12V12As8O56,88,3,62,1371.8603600387594,3.117842419970319,15.58932227316772,0.56930662,-7.138711205340908,-2.172460000193181,0.0,2.9011,1.0
mp-560736,K6V6Bi4O24,40,4,15,668.9541318781274,4.36919522077518,16.723853296953187,0.8756372800000001,-7.160705173249999,-2.270633770337499,1.0,2.9426,1.0
mp-18761,K6V6O16,28,6,164,406.2479770009577,3.25458775777374,14.508856321462774,0.93291377,-7.445385196785716,-2.428991238339287,1.0,1.8564,1.0
mp-27704,K3V5O14,22,6,157,326.5630860734463,3.030567025682187,14.843776639702105,-0.70484406,-7.770240438181791,-2.402736184170427,0.0,2.2837,1.0
mp-3529,K12V4S16,32,3,62,891.8023619382668,2.208309268148548,27.86882381057084,0.52712071,-5.043938453124999,-1.415006764593748,1.0,1.582999999999999,0.0
mp-1147776,K3V1Se4,8,1,121,318.639422277935,2.522687769368176,39.82992778474189,-0.46260413,-4.48847244125,-1.180764797640624,0.0,1.0092,0.0
mp-1224236,K6W4O8F12,30,4,15,501.185824693983,4.393084452103004,16.7061941564661,1.17492836,-6.712104991000001,-2.673083131116668,0.0,1.3463,1.0
mp-1029938,K12W8N20,40,1,80,812.9746941508988,4.534523089694576,20.32436735377247,0.70760162,-7.760013021000001,-0.659837185674999,0.0,2.1512,0.0
mp-555403,K3W1F6,10,0,225,184.0723865457111,3.744895271921797,18.40723865457111,-0.21383477,-5.628710441999997,-2.8451750771749973,0.0,2.8446,0.0
mp-1211761,K6Zr12Be2Cl30,50,4,15,1379.284496848056,2.902505344495895,27.58568993696112,2.4459643,-5.5215931558,-2.07567844327,0.0,0.9268999999999992,0.0
mp-30280,K16Ti12Te36,64,4,14,2245.278711001751,4.284751182384461,35.08247985940236,3.55784798,-4.60475476171875,-1.073398012906249,0.0,0.121099999999999,0.0
mp-640333,K49Tl108,157,0,200,5620.36125405057,7.087627241190868,35.798479325162866,3.66360888,-2.089692545605095,-0.105258755702234,1.0,0.0499,0.0
mp-1204061,K16As8Se20,44,4,14,1449.1105832894607,3.213276730520143,32.93433143839683,1.42341769,-3.870909648636366,-1.021338617338071,0.0,1.1592,0.0
mp-29341,K8Au12S10,30,2,190,806.318028622085,6.1721230375750125,26.877267620736166,1.04919167,-25.266204926,-0.7490174556041661,0.0,1.5841999999999992,0.0
mp-558121,K8Ba2V4S16,30,3,72,850.8511937093058,2.545394677335719,28.36170645697685,0.92088738,-5.378883441666667,-1.530940607599999,0.0,1.5514,0.0
mp-1224063,K8Ba4Sn2As8,22,4,9,794.8119067704818,3.5493536789218343,36.12781394411281,2.11530942,-3.488213745454545,-0.665169131272727,1.0,0.498599999999999,0.0
mp-1224198,K8Ba4Sn2Bi8,22,4,8,966.1255143957648,4.763301966201535,43.9147961088984,2.08916796,-3.078760945454545,-0.539384775818182,1.0,0.098899999999999,0.0
mp-1224114,K8Ba4Sn2P8,22,4,9,741.3015945878832,3.018004772345854,33.69552702672196,2.67392591,-3.685825965454545,-0.591744626597401,1.0,0.7994999999999991,0.0
mp-1224100,K8Ba4Sn2Sb8,22,4,9,924.8411550439696,3.7231090881971873,42.03823432018043,2.65334797,-3.32384248,-0.69756924490909,1.0,0.392199999999999,0.0
mp-29584,K4Be1As2,7,6,166,240.85872224973656,2.173400992962488,34.40838889281951,0.36027274,-2.9087857371428543,-0.393766191285711,0.0,0.8851000000000001,0.0
mp-9872,K4Be1P2,7,6,166,225.73558015523977,1.672436317121159,32.24794002217711,0.63933883,-3.088014648571428,-0.360037676183672,0.0,1.136099999999999,0.0
mp-28627,K4Br2O1,7,1,139,218.1688285305985,2.528464208032325,31.16697550437121,0.94492535,-3.520278752857142,-1.699231186285714,1.0,0.9912,1.0
mp-16137,K4Ca1U3O12,20,0,229,326.5294277134686,5.606932805088277,16.32647138567343,2.07392303,-8.262693235499999,-3.2736511924499982,0.0,2.1025,1.0
mp-29585,K4Cd1As2,7,6,166,269.601346866194,2.578549294768702,38.514478123742,0.26149313,-2.52097186142857,-0.403009840571427,0.0,0.6091000000000001,0.0
mp-28302,K4Cd1P2,7,6,166,252.72082977316995,2.173252436454326,36.10297568188143,0.51275325,-9.340752755714286,-0.457581890136052,0.0,0.8246,0.0
mp-1211822,K8Co2Mo6O24,40,5,2,743.510446278857,3.105015661311765,18.587761156971425,-0.45687527,-7.272627463250001,-2.094058563200001,0.0,2.2285,1.0
mp-1228096,K48Cu48Sn84,180,1,111,5634.706449763401,4.390583922002348,31.303924720907784,3.78318376,-3.463465505277777,-0.197511601544444,1.0,0.7236,0.0
mp-669560,K8Eu2P4S16,30,4,12,807.7298984107155,2.577264860842136,26.92432994702385,4.25323711,-5.244185401,-1.327424441219047,1.0,0.684299999999999,0.0
mp-553960,K8Fe4O10,22,4,14,368.1210813258541,3.140275304680557,16.73277642390246,0.91052774,-5.881509362727272,-1.6810251503636362,0.0,0.7339000000000001,1.0
mp-1195305,K8Ge2P8S24,42,4,15,1159.159841256057,2.113588345554911,27.59904383942993,3.201978839999999,-4.773468316428572,-0.941529475598638,1.0,2.1265,0.0
mp-1195433,K16Ge4P16Se48,84,3,29,2600.860148794277,3.321124545503324,30.962620818979488,1.11600409,-4.259429073333333,-0.7946034266998291,0.0,1.3986,0.0
mp-14411,K8Ge2O8,18,5,2,330.35511116971674,2.945854776662261,18.35306173165093,0.25982805,-5.169257450277779,-1.953662920722222,0.0,2.7733,1.0
mp-556627,K32Ge8S32,72,0,218,2093.163276039361,2.267570136059927,29.071712167213345,0.27994235,-4.129257309722224,-1.273485641277778,0.0,2.7142,0.0
mp-568847,K32Ge8Se32,72,0,218,2361.605226743571,3.064977074736457,32.80007259366071,0.02054073,-3.783732412916666,-1.213493228847221,0.0,1.9993,0.0
mp-1211649,K8Hf2O8,18,5,2,363.5256951145734,3.644073363825928,20.195871950809632,-0.37344733,-6.219351077222222,-2.411071972666666,0.0,2.8827,1.0
mp-29484,K4Hg1As2,7,6,166,267.1652035142579,3.150129680489338,38.16645764489398,0.41713996,-2.448273284285715,-0.423216713785715,0.0,0.6976000000000001,0.0
mp-8753,K4Hg1P2,7,6,166,251.29393568555503,2.7682754520248043,35.89913366936501,0.6951581,-13.540430602857144,-0.476857046921769,0.0,0.9356,0.0
mp-768368,K4I2O1,7,1,139,243.8457159501792,2.902344643035187,34.83510227859703,1.76651458,-3.3139624142857143,-1.525181681999999,1.0,1.017,1.0
mp-27764,K8I4O18,30,2,194,510.1314575403216,3.60795369017063,17.00438191801072,0.68832735,-4.893856679666666,-1.4201798019333332,1.0,1.9183,1.0
mp-8429,K4Ir1O4,9,4,12,170.9102873044192,4.008836342680254,18.990031922713243,1.75540016,-5.210229739999996,-1.526256729888885,0.0,0.428199999999999,1.0
mp-558483,K32Li8I8O48,96,3,61,1565.6697092217182,3.277107138745373,16.309059471059566,2.11480786,-4.786058620416667,-1.6488769201944442,1.0,2.312,1.0
mp-561377,K8Mn6F24,38,1,141,560.6932656987487,3.252931585361219,14.755085939440756,-0.2237603,-5.872883053947357,-2.979317092515415,0.0,0.84,0.0
mp-29637,K8Mn2Br12,22,6,167,721.3252690145288,3.180329648920842,32.78751222793313,-0.01418667,-3.924025624545454,-1.786828043357366,0.0,2.3071,0.0
mp-1211757,K16Mn4O16,36,5,2,653.8655216236589,2.796870537838209,18.162931156212743,1.20898015,-5.417560688055556,-1.6976342210478932,0.0,1.4906,1.0
mp-557872,K16Mo4S12O56,88,3,62,1469.4868685001638,2.5878189582526723,16.69871441477459,-0.56485844,-6.557508615568182,-2.145796716772727,0.0,2.7304,1.0
mp-557698,K8Na4Te2O12,26,4,14,420.2326156262286,3.366413597815373,16.1627929087011,1.59580801,-4.816829555384616,-1.7368301421865602,1.0,2.193699999999999,1.0
mp-560666,K32Nb16Se88O8,144,3,61,4398.439927040416,3.705116977150238,30.54472171555844,1.6380488400000002,-5.042932925694445,-1.257873135126736,1.0,1.361,1.0
mp-560692,K16Nb24O68,108,3,33,1767.044971879869,3.705609702472035,16.361527517406195,0.68290958,-8.450669009166667,-2.9229413715370383,0.0,2.6581,1.0
mp-31280,K8P42I2,52,3,63,1405.4944102560933,2.206373523579104,27.028738658771022,2.46115728,-4.918384036923078,-0.311674977749999,0.0,1.2638,0.0
mp-863747,K4P2Pd1S8,15,5,2,408.09731780233926,2.365218561252693,27.20648785348929,1.37635807,-4.6792953273333335,-1.103083041219046,0.0,1.7116,0.0
mp-21949,K32Pb8O24,64,3,61,1400.3015493613402,3.904665245786845,21.87971170877094,2.07886055,-4.352797768593749,-1.467546646593748,1.0,2.4381,1.0
mp-22328,K8Pb2O8,18,5,2,375.8146254348973,3.778624778623718,20.87859030193874,0.12769867,-4.690476961111106,-1.576035852111104,0.0,1.7002000000000002,1.0
mp-556254,K16Pt8S20O80,124,5,2,1952.456291708766,3.493373414451766,15.745615255715856,0.42606058,-6.278658541935484,-1.881279075209677,0.0,1.705099999999999,1.0
mp-17522,K8Rb4Co4O10,26,1,136,524.4108496246805,3.326026338289419,20.16964806248772,1.45463318,-4.896069117692308,-1.396593309923077,0.0,1.0943,1.0
mp-560515,K4Ru2Cl10O1,17,1,139,463.3938403697714,2.612544284859128,27.25846119822185,0.27385124,-4.431670815882352,-1.695925346705882,0.0,0.5983,1.0
mp-757850,K16Sb8O20,44,3,62,909.0352397062592,3.506617128802745,20.65989181150589,1.31944,-5.264960452272723,-1.853752598090904,0.0,2.5575,1.0
mp-18700,K16Si4O16,36,4,14,631.6739469722597,2.61276948496558,17.546498527007216,0.6286000700000001,-5.618083157499999,-2.313345275166666,0.0,2.9391,1.0
mp-569427,K16Sn4Te8Se8,36,3,62,1414.850197719903,3.230932891643724,39.301394381108416,1.5325537,-3.560565598333333,-1.13684498855787,0.0,1.78,0.0
mp-1224491,K8Sn42Hg4,54,3,40,1859.0258020788688,5.449570974154858,34.42640374220129,4.2330384500000005,-3.448137677037035,-0.139032791074071,0.0,0.194199999999999,0.0
mp-4971,K8Sn6Se16,30,3,68,963.8012075992518,3.942709552027766,32.126706919975064,1.145953749999999,-4.006089192,-1.037990106849999,1.0,1.503,0.0
mp-570900,K16Sn36,52,4,14,2040.8299471078512,3.986222084985664,39.24672975207406,3.01110437,-3.340371830769231,-0.216400631846152,0.0,1.2502,0.0
mp-14988,K32Sn8O24,64,3,61,1372.7948845084304,3.126599629574062,21.449920070444225,1.80321576,-4.50387887296875,-1.581512152843749,1.0,2.302499999999999,1.0
mp-7258,K8Sn2O8,18,5,2,362.16307808486266,3.109594323601198,20.120171004714592,0.32730076,-4.971190571111112,-1.823757819333333,0.0,2.3423,1.0
mp-18132,K16Sn4Se16,36,3,62,1272.20524698985,3.085301753198777,35.33903463860695,0.35300349,-3.731249530555553,-1.2291721242638871,1.0,1.9882,0.0
mp-570311,K24Sr12Sn6As24,66,2,185,2251.782951396441,3.318579486892387,34.11792350600668,1.75138514,-3.44785913030303,-0.6660048524848481,1.0,0.5375999999999991,0.0
mp-22634,K4Sr1U3O12,20,0,229,337.8954546431002,5.651966849908742,16.894772732155012,1.9729372,-8.229728385,-3.25634493145,0.0,2.0683,1.0
mp-18664,K8Ta4S22,34,5,2,942.8679924247474,3.067950369221467,27.731411541904336,1.292844109999999,-5.596042066470582,-1.255966230068621,0.0,1.7377999999999991,0.0
mp-1212432,K16Te32O92,140,3,62,2203.1274520033267,4.658524419497223,15.73662465716662,4.14442579,-5.729001469000001,-1.629714921780952,1.0,1.2989,1.0
mp-541735,K8Ti6S28,42,4,15,1018.9954711277296,2.440805119309383,24.261796931612608,2.22338783,-5.428025662619047,-1.325692858523808,1.0,1.2102,0.0
mp-559639,K8U2P4O20,34,1,137,584.8274304254637,3.5001637756421493,17.200806777219523,0.60249176,-7.38892838617647,-2.910843327252099,0.0,1.7849,1.0
mp-556212,K4U5Te2O21,32,5,2,544.306433204953,5.911501528582456,17.00957603765478,2.13763529,-8.379078455,-3.029818397729165,0.0,1.769,1.0
mp-6194,K8U2C6O22,38,4,15,607.9894281395223,3.312656114211597,15.999721793145325,-0.16538717,-7.617547795526314,-2.4633132463947343,0.0,2.0892,1.0
mp-8794,K8U2O10,20,5,2,358.86700687653934,4.390436852656259,17.943350343826967,1.2054403,-6.685354639500001,-2.6296852469000003,0.0,2.1712,1.0
mp-653182,K32U8S24O112,176,3,62,2980.5452665741223,3.185016362194866,16.934916287352966,0.81110359,-6.892691561193181,-2.460717848761362,1.0,1.8491,1.0
mp-1196076,K8V4S8O38,58,5,2,947.2649465766892,2.42095606092043,16.33215425132223,1.2397295,-6.772922155517241,-2.17781910737931,0.0,2.0392,1.0
mp-556552,K16V4P8S36,64,3,33,1770.2799550954614,2.093138583558643,27.660624298366585,1.963708099999999,-5.02927539109375,-1.173927383642856,1.0,1.2866,0.0
mp-1224111,K8Zn4Sn42,54,3,40,1798.240936432249,5.13446198332256,33.30075808207869,4.34639824,-3.52708147185185,-0.147600913851849,0.0,0.420799999999999,0.0
mp-571461,K4Zn1As2,7,6,166,255.4746779074028,2.415627688337331,36.49638255820039,0.36422784,-2.601723578571426,-0.440942497714283,0.0,0.725,0.0
mp-1103566,K8Zn2Bi4,14,3,20,578.3649937154305,3.673636774040022,41.31178526538789,0.85714473,-21.900220770714288,-0.473334222142861,0.0,0.329099999999999,0.0
mp-28382,K16Zn4O12,32,5,2,614.5834668899363,2.915887774537482,19.20573334031051,0.38147246,-4.0660578928125,-1.487419703312499,0.0,1.694599999999999,1.0
mp-11719,K4Zn1P2,7,6,166,239.2412771243501,1.969465752325274,34.17732530347858,0.56771953,-7.797473545714285,-0.513500549421768,0.0,0.9455,0.0
mp-627575,K4Zr6C1Br18,29,5,2,899.0252751673701,3.978569115888239,31.00087155749552,2.08463935,-5.125414201034481,-1.866607794362067,0.0,1.174999999999999,0.0
mp-1211812,K4Zr6Fe1Br18,29,5,2,1009.1101703336068,3.6166742433924153,34.79690242529678,0.69672904,-5.041179956206896,-1.808533697206896,1.0,1.3841,0.0
mp-1211624,K8Zr2O8,18,5,2,367.8752474144442,2.81317404618851,20.437513745246903,-0.45226097,-5.998470294444443,-2.34680101211111,0.0,2.9118,1.0
mp-646920,K20As12Pb12,44,3,62,1585.301072595258,4.365210161880777,36.02956983171041,2.06405615,-3.147839511136365,-0.347370654659092,0.0,0.843,0.0
mp-570836,K20Ag8As12Se36,76,3,62,2361.219653196758,3.788103666990278,31.06867964732576,0.76273128,-3.836635013157895,-0.846303704377741,0.0,0.9519999999999992,0.0
mp-8683,K10As4Au2,16,2,194,547.669537916831,3.288524851926335,34.22934611980194,1.12144185,-2.70842918125,-0.42455722140625,0.0,0.339399999999999,0.0
mp-558332,K10Au2I4O4,20,3,55,586.8015971320857,3.838731451612027,29.340079856604284,1.76632466,-3.5562704270000003,-1.368802641624999,1.0,1.882,1.0
mp-1223953,K10Ba2Nb2As8,22,4,9,781.0380477082716,3.084545684622616,35.50172944128507,1.07413352,-3.915730556818182,-0.6104924910227281,0.0,1.1094,0.0