material_id,composition,nsites,crystal_system,space_group,volume,density,density_atomic,efermi,energy_per_atom,formation_energy_per_atom,is_gap_direct,band_gap,is_oxide
mp-29799,K12Bi12O36,60,0,201,1020.0944985470918,5.7835495813543005,17.001574975784862,1.19517403,-5.545642485500002,-1.572585075950002,1.0,0.4914,1.0
mp-23572,K4Bi4P8S28,44,4,14,1151.0827790937833,3.084146401755438,26.16097225213144,2.11938692,-4.871953232727272,-0.7973288640032461,0.0,2.3782,0.0
mp-1223443,K1Bi1S2,4,6,166,108.9948255442475,4.756507849741324,27.24870638606188,2.5634656700000003,-21.067771605,-0.920137643593751,0.0,1.4158,0.0
mp-1106094,K4C4O12,20,4,14,350.45565477951186,1.8783703459986008,17.522782738975593,-2.07719981,-6.851735725499999,-1.810952079449999,0.0,0.875599999999999,1.0
mp-720856,K4Ca4H24N12,44,4,14,502.87195006599705,1.680695846203255,11.428907956045387,2.67841123,-5.014748815454545,-0.603585045431817,0.0,2.5876,0.0
mp-1200343,K4Ca8Cd8Sb12,32,3,62,973.3451149014008,4.840683248954925,30.417034840668773,3.8313559,-3.132068636875,-0.7008694390312491,1.0,0.067099999999999,0.0
mp-773137,K2Ca2Bi2,6,1,129,247.1039017742372,3.872828022680972,41.18398362903953,1.36458991,-24.70957216,-0.856628366249997,0.0,0.8270000000000001,0.0
mp-1018736,K2Cd2As2,6,1,129,165.82359646810366,4.534907737424708,27.63726607801728,1.91391482,-2.650592316666665,-0.396758168249998,0.0,0.1656,0.0
mp-1105494,K4Cd4Ge4As8,20,5,2,560.7747566793515,4.429793955368801,28.038737833967577,1.7486781100000002,-3.497636435999999,-0.286705869449999,0.0,0.688499999999999,0.0
mp-540753,K4Ce4P16O48,72,4,14,993.0934273444764,3.311416372616465,13.792964268673284,4.50395729,-7.789264478472223,-2.894500825462302,1.0,0.3409,1.0
mp-1211829,K2Ce2S4O16,24,5,2,338.71586847497395,3.640949858641004,14.113161186457248,4.16150049,-7.092923907916666,-2.515530010604165,0.0,0.339599999999999,1.0
mp-669330,K4Ce8Cu4Se24,40,3,70,1062.7193218215682,5.354106254808504,26.567983045539204,4.04481892,-5.3108740235,-1.502879523631249,1.0,0.083999999999999,0.0
mp-504644,K4Ce4F16,24,3,62,369.1302484180638,4.592229557192885,15.380427017419324,4.45647306,-6.39488124125,-3.940926392458333,0.0,0.04,0.0
mp-22809,K2Ce2Si2S8,14,4,4,363.4479192143103,3.066244859979065,25.96056565816502,4.61730447,-12.762263292857142,-1.6518842042857131,0.0,0.0743,0.0
mp-2759499,K4Co4F16,24,1,129,331.033870246379,3.491793632550049,13.79307792693246,-0.28508474,-7.7897323525,-2.496964541458333,0.0,1.1154,0.0
mp-557981,K24Co24P24O96,168,2,173,2543.1356263748007,3.0245067296306,15.137712061754764,2.31904393,-7.129516213095237,-2.347787071937073,0.0,0.7395,1.0
mp-1211679,K2Cr2Mo4O16,24,4,15,387.9210564773717,3.518401822174781,16.16337735322382,-0.79989416,-8.16001174875,-2.155061294354167,0.0,2.9629000000000003,1.0
mp-558367,K2Cr4Fe2O16,24,4,12,388.6529809133716,2.793655142667693,16.193874204723816,-0.78849094,-7.5100613604166675,-1.8024635343541664,0.0,1.7437,1.0
mp-19335,K2Cr6O16,24,4,12,353.23115922648725,3.037613962382392,14.7179649677703,-0.94700401,-7.748981526249999,-1.942798178520831,0.0,1.9034,1.0
mp-1189266,K2Cr6S10,18,4,12,347.73859312884576,3.394359200758243,19.31881072938032,4.76931708,-6.756584416111116,-1.114105530527781,0.0,0.4926,0.0
mp-12178,K1Cr5S8,14,4,12,263.5104420797055,3.501164908208904,18.82217443426468,4.71712664,-6.98001826142856,-1.086912289089272,0.0,0.236599999999999,0.0
mp-1104473,K1Cr5Se8,14,4,12,308.5380287672373,5.009305838755182,22.03843062623124,3.71932095,-6.436376625714286,-0.9103838475714272,0.0,0.0037,0.0
mp-556365,K2Cr2F6,10,4,12,143.85218425808222,3.418906474957139,14.385218425808224,2.20764015,-6.233367434,-2.9281725704499992,0.0,1.4898,0.0
mp-5053,K24Cr24F96,144,3,62,2281.277774862887,2.918955429686455,15.84220676988116,-1.53561204,-6.175260197083333,-3.101955748291666,1.0,2.9232,0.0
mp-20076,K1Cr1F6,8,6,148,109.25573950275457,3.117011113540737,13.65696743784432,-3.07525536,-5.402309915,-2.618868484656249,0.0,1.398,0.0
mp-18387,K4Cr4P8O28,44,4,14,599.791144093435,2.935058305937169,13.631616911214431,1.04250219,-7.798377442272727,-2.684641871503246,0.0,2.875499999999999,1.0
mp-7147,K1Cr1P2S7,11,4,5,262.854058733334,2.384777289892525,23.895823521212183,2.44395923,-5.466472051818182,-0.867937395821427,0.0,1.1285,0.0
mp-4026,K1Cr1S2,4,6,166,81.739739482668,3.153376581830179,20.434934870667,3.77838122,-5.946246675000001,-1.180962593062499,0.0,1.1644,0.0
mp-1223464,K1Cr1Sn1S4,7,4,6,172.649084469169,3.251503736337137,24.664154924167,2.9632891,-5.529873695714292,-1.051669793178576,0.0,0.102999999999999,0.0
mp-558063,K2Cu2Bi4S8,16,3,36,407.447380678243,5.28885887404528,25.465461292390188,3.93955068,-4.48288184625,-0.78737143590625,0.0,0.721399999999999,0.0
mp-554421,K4Cu8As4S12,28,5,2,588.6755170829217,3.805908475074844,21.024125610104345,3.89500935,-4.445391303928572,-0.671822118535714,0.0,1.1692,0.0
mp-21578,K2Cu8As6O24,40,4,15,517.8482579369586,4.553646651209904,12.946206448423965,2.39856992,-5.9789392425,-1.4332344394875,0.0,0.0943,1.0
mp-27450,K4Cu4Cl12,20,4,14,483.2891413171882,2.872467970229371,24.164457065859413,0.52616397,-8.355593913,-1.29111858725,0.0,0.268199999999999,0.0
mp-7911,K4Cu4O4,12,1,139,234.5558145823458,3.359754678548887,19.546317881862148,1.520070609999999,-4.610652090833333,-1.217806291583332,0.0,1.029399999999999,1.0
mp-3982,K2Cu2O4,8,3,63,137.87103294852034,3.24332273163737,17.233879118565042,0.17350423,-5.15639742375,-1.3747728230624991,0.0,0.8706,1.0
mp-622199,K4Cu4P8Se20,36,4,14,966.4279416712468,3.84464040094824,26.84522060197908,2.90938088,-4.339813009444445,-0.6130262503616061,0.0,1.291099999999999,0.0
mp-649472,K8Cu8P8O32,56,3,61,840.6567936917158,3.122782370978938,15.01172845878064,1.5187806,-6.549640511964285,-2.20136994937755,1.0,0.1287,1.0
mp-568611,K12Cu12P12Se36,72,4,14,1940.7451865992705,3.8040635749527,26.9547942583232,2.40006259,-4.242857046111111,-0.720559654265129,0.0,1.0928,0.0
mp-11114,K2Cu2Pd2Se10,16,4,11,412.0252560991976,4.867372794417467,25.75157850619985,2.34675109,-4.2016870825,-0.715435133621094,0.0,0.9195,0.0
mp-28270,K4Cu4S4,12,3,62,351.6022171810362,2.544808244700729,29.30018476508636,1.0280585,-4.044643202500001,-0.9216645490833332,0.0,1.8615,0.0
mp-1195095,K4Cu4Sb12F72,92,3,62,1632.132002122719,3.295966775999704,17.74056524046434,-2.17612317,-4.887781510652174,-2.62400225575,1.0,0.2823,0.0
mp-7435,K2Cu2Se2,6,2,194,143.81853081285377,4.193632532722193,23.969755135475623,2.87036169,-3.7393670599999993,-0.830537769864582,1.0,0.176199999999999,0.0
mp-7436,K2Cu2Te2,6,2,194,171.67185067239487,4.454191569724245,28.61197511206581,3.58372901,-3.514691195000002,-0.7233970996388901,1.0,0.6037,0.0
mp-15785,K1Dy1S2,4,6,166,103.13302042346363,4.27847668418345,25.78325510586591,1.69879985,-15.6886131725,-2.171096841093749,0.0,2.3337,0.0
mp-16560,K2Er4Cu2Se8,16,3,63,409.09905694627736,6.112894738615118,25.56869105914233,2.9250438,-5.2692255375,-1.725518047078123,0.0,0.944,0.0
mp-554741,K4Er4P8S28,44,4,14,1090.4266108045647,3.001566286425095,24.78242297283101,2.12729621,-5.336879390909092,-1.200647340366882,1.0,2.6723,0.0
mp-4326,K1Er1S2,4,6,166,100.96323018173854,4.448696103132344,25.240807545434635,1.78888375,-16.168824245,-2.165399928177082,0.0,2.3727,0.0
mp-9263,K1Er1Te2,4,6,166,140.23307471677214,5.465429105597077,35.058268679193034,2.869152719999999,-24.3286123475,-1.634075416770834,0.0,1.3304,0.0
mp-1211862,K4Eu4F16,24,3,62,347.7034373181903,5.101551823488093,14.487643221591265,-1.5120621,-6.779739865833331,-3.600591342874999,0.0,0.02,0.0
mp-10382,K2Eu2P2Se8,14,4,11,417.6085347880711,4.277518965905371,29.8291810562908,2.72170028,-5.644210961428568,-1.241553665181119,0.0,0.089599999999999,0.0
mp-976802,K2F4,6,1,136,120.93884935973416,2.117093666735462,20.156474893289023,-4.11251049,-3.770486013333333,-2.117461189083333,0.0,1.445599999999999,0.0
mp-867934,K8F24,32,3,19,554.2412690328064,2.303213934479601,17.3200396572752,-3.91580577,-3.3569040821875,-1.63867237025,0.0,0.0924,0.0
mp-19362,K2Fe2Mo4O16,24,6,164,392.0333178825575,3.514100936720712,16.334721578439893,-0.8756168,-7.914534282083321,-2.008169349354155,1.0,2.4118,1.0
mp-20968,K4Fe4S8O32,48,4,12,694.7660542997814,2.7444545172587143,14.474292797912112,0.10338909,-6.781761590208333,-1.9932784145625,0.0,2.1783,1.0
mp-654225,K4Fe4Se8O24,40,3,62,603.2959777952361,3.840868707458704,15.082399444880902,1.05126641,-6.19782696125,-1.5697289694437502,0.0,2.2925,1.0
mp-559163,K4Fe4As8O28,44,5,2,663.7975063691442,3.5700703406495373,15.086306962935096,0.36387061,-6.700644495,-1.829975128386363,0.0,2.6985,1.0
mp-1211520,K4Fe4Br16,24,3,52,824.5049974532344,3.339661567600842,34.35437489388477,-1.17242737,-4.008136509166666,-1.316606997041666,1.0,0.9533,0.0
mp-28435,K4Fe4Cl16,24,4,4,704.4579887467532,2.232305864393761,29.352416197781384,-0.37608526,-4.46533833875,-1.6327446499583331,0.0,0.1641,0.0
mp-555631,K8Fe8F32,48,3,62,714.470121590657,3.178270587399291,14.884794199805354,-2.8801786700000003,-5.713793319583334,-2.837659914125,0.0,2.7092,0.0
mp-559464,K16Fe16O32,64,3,61,1002.9626950383652,3.362714362781847,15.671292109974456,1.64300027,-6.60618519703125,-1.73185696134375,1.0,2.1388,1.0
mp-541673,K4Fe4P8O28,44,4,14,581.1726922832997,3.073074489332921,13.208470279165905,0.5563856500000001,-7.541400801818176,-2.535213072866876,0.0,1.9052,1.0
mp-1223574,K1Fe1Sn3O8,13,4,8,179.23698634948636,5.364773677975967,13.787460488422028,3.9153462,-6.73068047,-2.02192704401923,0.0,1.4194,1.0
mp-181,K3Ga9,12,1,119,285.75435797216085,4.328097253195336,23.812863164346737,2.29525423,-2.726530472500001,-0.1726160249375,0.0,0.216299999999999,0.0
mp-1223528,K4Ga4Ge4S16,28,4,4,771.1301048661074,2.667795305423528,27.540360888075263,0.61016286,-4.677214411071428,-1.057795572464284,1.0,2.3828,0.0
mp-29402,K4Ga4I16,24,4,14,1084.9672336722226,3.773833195342796,45.206968069675945,-0.19600991,-2.837877645416663,-1.128624944541663,0.0,2.605,0.0
mp-17650,K8Ga8S16,32,4,15,798.6545876403778,2.876761941532351,24.957955863761807,0.90784654,-4.4012842990625,-1.292238078999998,1.0,2.9211,0.0
mp-29383,K16Ga16Sb32,64,3,64,2094.935015070338,4.468503236369736,32.73335961047403,2.96227511,-3.5186319109375,-0.414264854625,0.0,1.013399999999999,0.0
mp-29374,K4Ga4Sb16,24,3,62,801.8159686317954,4.936050194228205,33.408998692991474,3.87517718,-3.7949060633333263,-0.348994279124992,1.0,0.2906,0.0
mp-17965,K8Ga8Te16,32,4,15,1156.6452197160738,4.180860851163335,36.14516311612731,1.77454387,-3.5149489625,-0.903429579520833,0.0,1.5332,0.0
mp-1194808,K2Gd2B8H32,44,4,14,487.0453193705641,1.743706128636832,11.069211803876456,-0.91849426,-4.775569334545455,-0.400672876996212,0.0,2.4168,0.0
mp-9806,K2Gd2C4O12,20,4,15,278.8696289566731,3.767626258645052,13.943481447833657,0.4138133,-8.888809485500001,-2.553550587725001,0.0,2.7427,1.0
mp-1224518,K1Gd1Nb6Cl18,26,6,146,666.3967167743994,3.468462033642266,25.63064295286152,2.28759117,-6.102632230384615,-1.906897899509616,0.0,0.386,0.0
mp-1211663,K4Gd8Cl28,40,4,14,1148.2031081739003,3.481131254973724,28.70507770434752,1.66468554,-16.062037091249998,-2.474102409374998,1.0,2.5883000000000003,0.0
mp-861926,K2Gd4Cu2Se8,16,3,63,429.4745895760685,5.668084188896455,26.842161848504283,2.65525359,-7.67764620875,-1.756837860828124,0.0,0.7999,0.0
mp-15784,K1Gd1S2,4,6,166,106.16125112827,4.07431514375186,26.5403127820675,1.79235657,-18.5008831,-2.129566249843748,1.0,1.8308,0.0
mp-20420,K1Gd1Te2,4,6,166,145.26271939030957,5.1617758207604965,36.31567984757739,2.72595571,-26.70886803,-1.6464385659375012,0.0,0.8263,0.0
mp-2146,K32Ge32,64,0,218,2060.164087313728,2.882035481007242,32.19006386427699,1.60548197,-3.07934357703125,-0.202144788156249,0.0,0.9083,0.0
mp-1029404,K2Ge4N6,12,3,36,157.19252230691484,4.783222284349028,13.09937685890957,4.08546377,-6.1937987725,-0.295088994541668,0.0,1.5719,0.0
mp-554859,K8Ge8Au8S24,48,4,14,1310.253695911072,4.105171709167109,27.29695199814733,1.00670014,-4.433049506458333,-0.8591564597499991,0.0,2.220399999999999,0.0
mp-866646,K4Ge4Bi4S16,28,4,14,751.5577912305343,3.968007145268704,26.8413496868048,2.23706434,-4.649235082857143,-0.90668220317857,0.0,1.804799999999999,0.0
mp-998612,K2Ge2Br6,10,4,11,342.7646286889748,3.40523440443936,34.27646286889748,-0.80283708,-3.520239458,-1.38719202145,0.0,2.902599999999999,0.0
mp-998613,K2Ge2Cl6,10,6,161,313.5309319788258,2.310196857989364,31.35309319788258,0.17458284,-3.915682033000001,-1.655676837450001,1.0,2.8924000000000003,0.0
mp-6955,K4Ge4N4O4,16,3,29,251.86428388303253,3.73807846103476,15.741517742689531,1.1874323,-6.033515937500001,-1.2733568555625,0.0,2.6817,1.0
mp-14352,K8Ge8Sb8O40,64,3,33,988.3460311314968,4.213675586875312,15.44290673642964,3.62651815,-6.439381119531251,-2.1114806391875,0.0,2.717,1.0
mp-24428,K2H4N2,8,4,11,104.73266187158907,1.747885960114227,13.091582733948636,-0.20540668,-5.9452645175,-0.430954664999999,1.0,2.0676,0.0
mp-974267,K2H16N6,24,3,20,220.24608888236511,1.344769053070374,9.176920370098546,-0.225000099999999,-5.47011578125,-0.382997851249999,0.0,2.5404,0.0
mp-1211876,K4Hf24C4Cl60,92,3,51,2522.577674042681,4.354708440213595,27.419322543942183,2.15623176,-6.434328620978261,-2.180793342923913,0.0,1.1511,0.0
mp-561312,K4Hf4Cu4F28,40,3,63,522.9450546568127,5.259960808531684,13.073626366420315,0.08669814,-6.1256854525,-3.267212247725,0.0,0.4453,0.0
mp-9855,K2Hf2Cu2S6,12,3,63,260.54574531585934,4.8096739623457765,21.71214544298828,3.82147506,-6.121875126666667,-1.521401105791665,1.0,0.757,0.0
mp-1211367,K1Hg5Cl11,17,4,12,484.005671666407,4.913049696415424,28.470921862729824,1.40543191,-19.72504202294117,-0.8700935275735271,0.0,2.6479,0.0
mp-7483,K4Hg4F12,20,0,221,371.8041543165061,5.300151193979543,18.590207715825308,-1.16605198,-3.63507531,-2.198555532950001,0.0,0.6082000000000001,0.0
mp-11606,K2Ho4Cu2S8,16,3,63,357.95228633809575,5.202772132429334,22.372017896130984,3.47127269,-5.7744163,-1.901994600906248,0.0,1.036,0.0
mp-16559,K2Ho4Cu2Se8,16,3,63,412.29782586932674,6.027953242500381,25.76861411683292,2.940638,-5.27921642875,-1.728018774578123,0.0,0.9224,0.0
mp-15786,K1Ho1S2,4,6,166,102.13709948724274,4.359707361879431,25.534274871810684,1.67989461,-15.91163328,-2.169231776093749,0.0,2.3505000000000003,0.0
mp-628908,K8I8Cl16,32,4,14,1092.6019267090776,2.8804362005113093,34.143810209658675,0.53435649,-2.966061144687499,-1.377944160249999,0.0,2.3622,0.0
mp-647366,K4I4Cl16,24,4,14,819.7824257653934,2.494020046278826,34.15760107355806,-1.06570697,-2.89173236333333,-1.21680677370833,0.0,2.1836,0.0
mp-23487,K4I4O12,20,5,1,350.6688937400874,4.053475826557709,17.53344468700437,1.39376459,-4.866476067999999,-1.366622997449999,1.0,2.7868,1.0
mp-23562,K2I2O8,12,1,88,204.52228151704813,3.734796980402538,17.04352345975401,-0.42471356,-4.907826036666667,-1.166621643708333,0.0,2.349199999999999,1.0
mp-1195253,K4In4Te8O24,40,3,62,683.4688824053914,4.90883721543481,17.086722060134782,5.56366618,-5.752468548,-1.765976419724999,1.0,2.8719,1.0
mp-1224365,K3In21S24,48,4,6,1228.7512112001448,4.45697422184681,25.598983566669684,5.14324989,-4.200348974166668,-0.853320070036457,1.0,1.1777,0.0
mp-28529,K4In4Br12,20,6,147,697.2808897524967,3.749623312357553,34.86404448762484,-0.2871512,-3.2797647855,-1.519488171283333,0.0,2.3376,0.0
mp-22932,K4In4Br16,24,3,52,876.2497157137601,3.589473956320523,36.510404821406674,-1.33818704,-3.274070830416666,-1.534349229402777,1.0,2.8234,0.0
mp-1018031,K1In1O2,4,6,166,58.232414910174086,5.301502386549792,14.55810372754352,3.14358409,-5.357643565,-1.911027195979166,0.0,2.077499999999999,1.0
mp-22583,K1In1P2S7,11,4,5,291.6446958155119,2.507045797513457,26.513154165046537,2.02186215,-4.790941383636364,-0.819122520972942,1.0,2.049,0.0
mp-505412,K8In8S16,32,4,15,911.274532764875,3.178619715215987,28.477329148902346,1.46133522,-4.224239143437501,-1.182423493166666,0.0,2.0145,0.0
mp-505700,K8In8Se16,32,4,15,1032.312618527746,4.012864701954274,32.259769328992064,1.14800495,-3.8535053481249992,-1.13291374277604,1.0,1.8437,0.0
mp-568379,K8In8Sn8Se32,56,4,14,1945.866851295826,4.017423000455844,34.74762234456832,1.176190979999999,-4.067899571964285,-0.9416479674345232,0.0,1.7413,0.0
mp-19851,K2In2Te4,8,1,140,280.8192108768498,4.838369830978328,35.102401359606226,3.11683549,-3.445765269999999,-0.9014764568124972,0.0,0.9868999999999992,0.0
mp-560649,K4La4P8S24,40,4,14,1010.07284686962,2.8430409193409982,25.251821171740502,2.76823589,-5.48838378825,-1.315535659903571,0.0,2.6738,0.0
mp-571662,K4La4P8Se24,40,4,14,1138.293634338663,4.164638895302953,28.457340858466573,2.47512835,-4.92170208925,-1.134322814809821,0.0,1.974699999999999,0.0
mp-571240,K4La20C8Cl40,72,4,14,1973.948650191582,3.742373825827128,27.41595347488308,4.4135376,-5.810897329861112,-2.324554872486112,0.0,1.954099999999999,0.0
mp-1195137,K2La10V4O26,42,4,12,682.3448387408243,5.078880440139059,16.24630568430534,3.60157856,-8.545240358809522,-3.387968432488095,1.0,2.9836,1.0
mp-541211,K4La4Cr8O32,48,4,14,716.2982720805927,3.801803697046709,14.922880668345682,0.29993375,-7.767174975000008,-2.354078324354174,0.0,2.669699999999999,1.0
mp-559043,K2La2Ge2S8,14,4,4,376.8646137565232,3.3390479742601222,26.9189009826088,2.5552872,-5.480385117857144,-1.588407553178571,0.0,2.303599999999999,0.0
mp-21097,K2La2Ge2Se8,14,4,4,437.3679370070321,4.301496982686799,31.24056692907372,2.23382737,-4.986652021428571,-1.461787650946428,0.0,1.621999999999999,0.0
mp-15781,K1La1S2,4,6,166,116.44263695445684,3.452967014010495,29.11065923861421,2.51456866,-15.148483055,-2.19022247859375,0.0,2.7005,0.0
mp-861938,K2La2Si2S8,14,4,4,367.79414483459686,3.019080279126651,26.271010345328342,2.60457874,-12.646799682142856,-1.692970387142858,0.0,2.8686,0.0
mp-861606,K2La2Si2Se8,14,4,4,425.8223766105614,4.070635976134484,30.415884043611527,2.29878699,-5.203826018571428,-1.564348765946428,0.0,2.208099999999999,0.0
mp-11739,K1La1Te2,4,6,166,157.26253223056813,4.574209595129334,39.31563305764203,3.05344747,-4.78778325,-1.699286096395833,0.0,1.701299999999999,0.0
mp-1104930,K2La2Ti2O8,14,1,129,203.79933701026056,4.723643949169763,14.557095500732895,3.45718023,-8.208230002142857,-3.386128164369048,0.0,2.3399,1.0
mp-28994,K2Li4As2,8,3,59,185.59503891257668,2.288704513727973,23.199379864072085,0.93729651,-2.986765713749999,-0.581931216604166,1.0,0.6878000000000001,0.0
mp-559106,K2Li6Pb2O8,18,5,2,233.3726605412018,4.712084679195278,12.965147807844543,1.17055634,-5.218383340555555,-1.844757850249999,0.0,1.693099999999999,1.0
mp-23582,K1Li6Bi1O6,14,6,166,148.11446344463306,4.324391693194456,10.579604531759504,1.0849377,-5.282538701428572,-1.985202468375,1.0,1.4216,1.0
mp-555206,K8Li8Cr8O32,56,3,33,885.5048962951688,2.430813224899077,15.8125874338423,-1.40322275,-6.725144749107143,-2.084404166333332,0.0,2.8721,1.0
mp-753940,K1Li1Mn1S2,5,1,119,109.686705995288,2.499548090785788,21.9373411990576,2.36540622,-5.326415488,-1.2306100847028731,0.0,0.6361999999999991,0.0
mp-8756,K2Li2Se2,6,1,129,146.04031586940903,2.8425879485670453,24.340052644901505,0.46906723,-3.542389261666667,-1.363654572642361,0.0,2.5249,0.0
mp-4495,K2Li2Te2,6,1,129,180.18507341646608,3.200429821183268,30.030845569411014,1.40742506,-3.270399698333335,-1.209200204083335,1.0,2.4134,0.0
mp-1211625,K4Li4Yb4F20,32,4,14,412.8837222932999,5.052538153063795,12.902616321665622,-3.03159498,-11.4121264503125,-3.841565339739585,1.0,0.0234,0.0
mp-1223469,K1Li1Zn3O4,9,4,8,116.5442192108784,4.3636928033218645,12.9493576900976,2.23484176,-4.769940347777777,-1.813121743398147,1.0,1.643,1.0
mp-551092,K2Li2Zn2O4,10,4,12,133.94125970775025,3.556775769620358,13.394125970775026,0.52251233,-4.648744361,-1.809552719116666,1.0,2.258,1.0
mp-774907,K1Li1Zn1S2,5,1,119,105.644498076425,2.759771040667913,21.128899615285,1.0428322,-3.83574446,-1.320393393116666,0.0,2.5442,0.0
mp-1223523,K1Lu1Nb6Cl18,26,6,146,650.9179563414068,3.596139051495252,25.03530601313103,2.41210555,-5.730419755384616,-1.902163685535256,1.0,1.0824,0.0
mp-1007636,K1Lu1S2,4,6,166,98.26878640409264,4.70092468522912,24.567196601023163,1.76425765,-17.1994487025,-2.157413131510415,0.0,2.4307,0.0