material_id,composition,nsites,crystal_system,space_group,volume,density,density_atomic,efermi,energy_per_atom,formation_energy_per_atom,is_gap_direct,band_gap
mp-8818,Ca2 Zn1 N2,5,Tetragonal,139,80.42332148235616,3.5839568548677283,16.08466429647123,3.047177259999999,-5.238458658000002,-0.848958886000002,False,0.7618
mp-1205338,Ca6 Al4 As8,18,Monoclinic,15,436.4827018685765,3.605650457798824,24.249038992698694,3.9562151,-11.522621481666667,-1.143821291666667,False,1.1101
mp-29820,Ca24 Al16 N32,72,Orthorhombic,19,984.470584679406,3.106609770604501,13.67320256499175,4.26196706,-9.265937606249999,-1.366595334583332,False,2.1954000000000002
mp-1205337,Ca6 Al4 P8,18,Monoclinic,15,401.21442421604644,2.467476688095708,22.289690234224803,4.53466758,-9.019318495,-1.176275938544974,True,1.248199999999999
mp-1227905,Ca18 B12 N24,54,Orthorhombic,64,784.1174068497802,2.514359077896192,14.520692719440374,2.21216055,-9.420056253518519,-1.384212677962963,False,2.4714
mp-571162,Ca6 Ga4 N8,18,Monoclinic,15,247.27587278464063,4.240150638941235,13.737548488035591,3.85255584,-9.891935857222222,-0.945776336666666,True,1.9148
mp-1189986,Ca6 Ga4 P8,18,Monoclinic,15,401.5930909916271,3.172073257556365,22.310727277312616,4.10304224,-9.918516808333333,-1.028657002989417,False,0.9434000000000001
mp-18504,Ca12 Ge8 As16,36,Monoclinic,14,888.6937773949969,4.22434529657248,24.685938260972137,3.2004134,-12.893985540277777,-0.9285455169444431,False,0.727699999999999
mp-17817,Ca12 Ge8 P16,36,Monoclinic,14,818.6087719584725,3.159648218987409,22.739132554402016,3.8059833100000002,-10.353776657222221,-0.924094267433861,False,0.9508000000000001
mp-1195188,Ca6 Si16 P28,50,Monoclinic,14,1034.4780134602013,2.499451477402064,20.689560269204026,6.39838617,-5.410453400400001,-0.40101447099999904,False,1.2361
mp-540696,Ca12 Si8 As16,36,Monoclinic,14,859.1066210352141,3.6808859325035153,23.864072806533724,3.8770820500000003,-11.81383684361111,-0.981333039166666,False,0.8230000000000001
mp-1194866,Ca12 Si8 P16,36,Monoclinic,14,788.5640463717486,2.5294582663271683,21.904556843659684,4.5350868,-5.164629432499999,-0.883592787896824,True,0.8441999999999991
mp-680302,Ca62 Sn40,102,Tetragonal,140,3178.5551154789378,3.778783289755136,31.162305053715077,4.19182927,-3.447600533431372,-0.656129290686273,True,0.035699999999999
mp-1029921,Ca6 Al6 N10,22,Triclinic,2,291.20154590329133,3.093103865394368,13.23643390469506,4.4447769,-9.335867221363635,-1.430873635340908,False,2.5573
mp-17186,Ca12 Al4 As12,28,Orthorhombic,62,690.8189451768424,3.576554398601644,24.672105184887226,3.71144746,-11.54164871142857,-1.260281226785713,True,0.7300999999999991
mp-29596,Ca12 Al4 N12,28,Monoclinic,14,409.503601044365,3.069405689101672,14.625128608727321,3.90276448,-9.119550189642856,-1.229088554821428,False,2.4565
mp-18300,Ca12 Al4 Sb12,28,Orthorhombic,62,837.0142670370607,4.066926439932845,29.893366679895024,4.68752178,-4.081434248571432,-0.9172372214285741,True,0.252399999999999
mp-27294,Ca3 As1 Br3,7,Cubic,221,208.78878557829066,3.458589198641642,29.826969368327237,2.35486637,-4.2424351528571425,-2.014183470357142,True,1.6726
mp-28069,Ca3 As1 Cl3,7,Cubic,221,190.72247703498627,2.625158713508255,27.24606814785518,2.49027457,-10.007190964285714,-2.252943995714286,True,1.8439
mp-1214087,Ca12 As4 I12,28,Cubic,214,977.77868801666,3.91194040151946,34.92066742916643,2.61505968,-3.8659341260714273,-1.686082694999998,True,2.1921
mp-4192,Ca12 As4 N4,20,Orthorhombic,62,430.20958105101334,3.229329942502832,21.510479052550668,3.51863597,-10.282573361999999,-1.292340810249999,True,0.894
mp-30315,Ca3 B1 N3,7,Tetragonal,123,102.72464643001315,2.797589182366571,14.674949490001879,4.22677379,-9.262457334285715,-1.2842448612500021,False,0.5682
mp-31149,Ca3 Bi1 N1,5,Cubic,221,117.67446228077745,4.843294237211277,23.53489245615549,4.42239517,-18.95342622,-1.204245116750002,True,0.3687
mp-1013558,Ca3 Bi1 P1,5,Cubic,221,158.9968941301616,3.7617496719037433,31.799378826032317,3.37914756,-18.845626722,-1.121780490595242,True,0.07590000000000001
mp-28160,Ca6 C6 Cl4,16,Orthorhombic,63,296.9485538230462,2.540696979560673,18.559284613940388,3.69129857,-5.845224541875,-1.170239327187499,False,1.2768
mp-755287,Ca3 Cd1 O4,8,Orthorhombic,65,109.18157407744167,4.511627811561035,13.647696759680208,2.08973674,-6.17731400875,-2.831232277499999,False,2.52
mp-561911,Ca6 Co2 Se8 O24,40,Tetragonal,88,677.4722173860412,3.367784836559438,16.936805434651028,1.88976357,-6.40509332125,-2.07962360471875,False,2.9679
mp-6118,Ca6 Cu6 P8 O32,52,Monoclinic,14,635.2348985358088,3.611356147443333,12.216055741073246,2.4317422,-7.203449593846154,-2.620999984945054,False,0.6475000000000001
mp-21971,Ca12 Fe8 Ge12 O48,80,Cubic,230,969.9638248067056,4.395195175423877,12.12454781008382,3.07253125,-7.337323833875,-2.527250949624999,True,2.4715
mp-560990,Ca6 Fe4 Se12 O36,58,Trigonal,167,859.4436180182392,3.83977059911897,14.817993414107573,1.29679456,-6.480890371034483,-1.8948348877262942,True,1.9936
mp-6672,Ca12 Fe8 Si12 O48,80,Cubic,230,906.3803629691059,3.724006616775319,11.329754537113825,3.14801059,-7.945992171375001,-3.015575760875001,False,2.6416999999999993
mp-29226,Ca9 Ga12 O27,48,Orthorhombic,35,643.276852169815,4.205994531591592,13.401601086871146,1.3596729,-6.655191355833334,-2.738889307395833,True,2.639299999999999
mp-541062,Ca12 Ga4 As12,28,Orthorhombic,62,689.8386745674738,3.993175657206868,24.63709552026692,3.48963189,-4.297545768928571,-1.003936731785713,True,0.332999999999999
mp-1029943,Ca6 Ga2 N6,14,Hexagonal,176,225.6611240312838,3.414031005652288,16.118651716520272,2.96715969,-9.538645849285714,-0.9752302687500001,False,0.8826
mp-1332615,Ca12 Ge12 Mo8 O48,80,Cubic,230,1033.278351840668,4.641358086700975,12.91597939800835,4.15040375,-7.6223002891250005,-2.574664514875,True,1.8503
mp-1214274,Ca12 Ge12 Rh8 O48,80,Cubic,230,980.4733339805041,4.9857008280177855,12.255916674756302,3.49875965,-7.039001309375,-2.339499759124999,True,1.5931000000000002
mp-17193,Ca6 Ge2 O2,10,Orthorhombic,74,209.9891859626689,3.30343145132463,20.99891859626689,4.45001187,-4.825235687000001,-1.7076779870000012,True,0.14019999999999902
mp-1214066,Ca6 Hf6 Ag2 F40,54,Hexagonal,176,843.0396234787843,4.50487315119623,15.611844879236745,-1.23439119,-6.764326206481481,-3.912165024691358,False,0.8421000000000001
mp-1214247,Ca12 In8 Ge12 O48,80,Cubic,230,1037.798863640451,4.862788217381733,12.972485795505637,3.22949006,-6.831742217874999,-2.592754080291666,True,2.6717999999999993
mp-614572,Ca12 In4 P12,28,Orthorhombic,62,677.5224618144747,3.215317483323854,24.197230779088382,4.35266541,-11.239389035714286,-1.139431833418366,True,0.9918000000000001
mp-744259,Ca12 Mn8 Ge12 O48,80,Tetragonal,88,971.9594883895576,4.373774936336749,12.14949360486947,2.76708836,-7.46414884175,-2.584876549293104,True,1.017
mp-1047495,Ca6 Mn6 As8 O32,52,Monoclinic,14,766.7506814651324,3.641487728878479,14.745205412791007,1.78751886,-7.376049030384616,-2.324098579376658,True,2.0539
mp-1232815,Ca6 Mn2 Co2 O12,22,Monoclinic,9,262.5016533745687,4.176329269717537,11.931893335207668,3.15157836,-7.334750401818181,-2.607477885266457,False,2.1034
mp-844,Ca24 N16,40,Cubic,206,747.4059775130344,2.634933159523292,18.68514943782586,2.54198068,-8.834197172749999,-0.9597206842499991,False,1.3497
mp-561965,Ca12 Nb8 Co4 O36,60,Monoclinic,14,742.7405278021096,4.551641392096121,12.379008796701827,3.04082928,-8.245543025833333,-3.053244660166666,False,2.1471
mp-29342,Ca3 P1 Cl3,7,Cubic,221,184.16890190153578,2.322322966270006,26.309843128790824,2.67403279,-9.192528168571428,-2.253346153639455,True,1.8419
mp-27272,Ca12 P4 I12,28,Cubic,214,949.4265514338973,3.721302654212342,33.90809112263919,2.88727976,-3.969942778928573,-1.683612634591838,True,2.216999999999999
mp-11824,Ca3 P1 N1,5,Cubic,221,104.59748823288615,2.6228647853136993,20.91949764657723,3.87373418,-9.054565102,-1.205423485345237,True,0.8055999999999991
mp-1030245,Ca54 Re18 N72,144,Trigonal,159,2373.8345188262,4.563947012818382,16.484961936293058,5.02240335,-7.4776093040277765,-1.000356200590276,True,0.066999999999999
mp-1214080,Ca12 Sb4 I12,28,Cubic,214,1050.9633567386788,3.935551034148621,37.53440559780996,2.98096814,-3.7305720142857153,-1.628023624999999,True,1.8545999999999991
mp-1013548,Ca3 Sb1 N1,5,Cubic,221,114.8041449895023,3.702820690540552,22.96082899790046,4.63008327,-4.899586169999999,-1.202770444999998,True,0.40750000000000003
mp-1013550,Ca3 Sb1 P1,5,Cubic,221,155.9331687720289,2.906845517813132,31.18663375440578,3.5085808800000002,-4.133625522,-1.02137064092857,True,0.6583
mp-561991,Ca6 Sc2 Co2 O12,22,Trigonal,167,260.9532374796124,4.074070530707727,11.861510794527838,3.3967873600000003,-7.49323990409091,-3.023198859090909,False,2.6504
mp-1205330,Ca6 Si2 O2,10,Orthorhombic,74,208.68400586094293,2.615034647289244,20.868400586094292,4.52800451,-4.876703399,-1.598687663999999,True,0.056599999999999005
mp-984605,Ca6 Sn2 H4,12,Orthorhombic,63,264.3938585969303,3.026721546004121,22.032821549744188,3.33532382,-3.491257244166667,-0.6884731820833331,True,0.11179999999999901
mp-9216,Ca12 Tl8 O24,44,Orthorhombic,55,624.7678973079968,6.644591948335474,14.199270393363564,3.39954148,-5.992557492727271,-2.315511137878787,True,1.204699999999999
mp-1247754,Ca3 U1 N4,8,Tetragonal,139,118.25296486864337,5.817564482290658,14.781620608580422,4.8935002999999995,-18.72687096875,-1.530380917499997,False,1.333299999999999
mp-14252,Ca6 U2 O12,20,Trigonal,148,305.9172173888696,4.931499685177281,15.295860869443478,2.19195857,-8.319374010499986,-3.619776442499985,True,2.260099999999999
mp-1163934,Ca12 V8 Si12 O48,80,Cubic,230,914.4247100245157,3.620010271177859,11.430308875306446,4.30915376,-8.229281139375,-3.237476242875,True,1.8973
mp-9029,Ca6 V2 N6,14,Orthorhombic,63,223.28566599546207,3.171001784184586,15.948976142533004,3.93688274,-10.209085817142858,-1.267555982321429,False,0.7644999999999991
mp-569617,Ca3 Zn2 Cu2 P4,11,Trigonal,164,208.16782447171113,4.004727696407096,18.924347679246466,5.43957067,-4.279781288181818,-0.7891818062337651,False,0.042899999999999
mp-14778,Ca12 Zn12 Te8 O48,80,Cubic,230,1037.0451968671696,4.891115535131166,12.96306496083962,2.61682931,-6.093482992625,-2.320574276791666,True,2.3035
mp-1228746,Ca43 Al16 Pb13,72,Trigonal,166,2220.5939165462914,3.6257809206529483,30.841582174254047,3.6390632,-3.119484177361111,-0.41900612138888704,False,0.23899999999999902
mp-1227669,Ca4 Al6 Cr1 O16,27,Tetragonal,82,408.50422806217125,2.561665891630804,15.129786224524862,0.5126468,-7.647048928148148,-3.227927518888888,True,2.8012
mp-8789,Ca4 As2 O1,7,Tetragonal,139,159.2019150725174,3.401921734450228,22.743130724645344,3.25380141,-4.99683507,-1.8096056999999992,False,1.213499999999999
mp-1194887,Ca32 As24,56,Orthorhombic,55,1453.9266604977079,3.51838968175973,25.962976080316214,3.16202652,-11.688116169821429,-1.363006489464286,False,0.6617000000000001
mp-551873,Ca4 Bi2 O1,7,Tetragonal,139,186.82250515415913,5.282084208645243,26.68892930773702,4.15265505,-4.566568400000002,-1.6022213792857172,False,0.8131
mp-2759927,Ca4 Bi6 O13,23,Orthorhombic,38,374.3602929753474,7.195485934701986,16.276534477189017,5.78339452,-21.863812456086954,-2.004504539565217,True,2.169199999999999
mp-5251,Ca16 C4 N16,36,Orthorhombic,62,566.5724916267853,2.677032656490874,15.738124767410703,3.04393236,-6.632505455833334,-1.009819234444444,False,1.790699999999999
mp-29808,Ca16 Ge4 N16,36,Monoclinic,14,557.9855631391922,3.43994983755151,15.499598976088672,3.41916548,-9.732386645277778,-1.005702749166666,True,1.409
mp-1029730,Ca8 Hf2 N8,18,Triclinic,2,303.5565922640042,4.319646904249047,16.864255125778012,2.83893842,-13.581982947222222,-1.37980596111111,False,1.2158
mp-644264,Ca4 Mg4 Fe3 H22,33,Cubic,215,298.7862163581128,2.485597531586569,9.054127768427662,3.66408791,-3.999217768484847,-0.525035802954544,True,1.584499999999999
mp-2713764,Ca8 Nb4 S18 O72,102,Trigonal,158,1720.8455233301704,2.33651999542593,16.87103454245265,-0.772397799999999,-7.132868872450981,-2.356460207990197,True,2.3518
mp-5380,Ca4 P2 O1,7,Tetragonal,139,152.2721037833324,2.598231990220828,21.7531576833332,3.5526576,-5.170744518571427,-1.770557722040813,False,1.2714
mp-10299,Ca8 Pd2 O12,22,Trigonal,167,279.9215841038322,4.303524365179995,12.723708368356007,2.92705301,-6.574330808181816,-2.675235593636361,True,1.822699999999999
mp-13660,Ca4 Sb2 O1,7,Tetragonal,139,180.03450348543683,3.872293519235127,25.719214783633834,4.33754022,-4.814377421428568,-1.781754134999996,False,0.907899999999999
mp-1019576,Ca16 Si4 N16,36,Monoclinic,14,538.3628212472416,3.015632454232651,14.954522812423379,3.76490169,-6.422909484166666,-1.222817425277777,True,1.4498
mp-1214132,Ca32 Si8 P32,72,Cubic,218,1672.6697022089272,2.480221769915372,23.231523641790655,4.02486017,-4.940922580972223,-1.03985461970238,True,1.1988
mp-1029681,Ca8 Sn2 N8,18,Triclinic,2,301.41376818408736,3.6916802106906683,16.745209343560408,3.64196178,-5.921077766111111,-0.8782908377777771,True,1.929199999999999
mp-568469,Ca8 Ti2 N8,18,Triclinic,2,284.13965142373837,3.088087497285169,15.785536190207687,3.25321257,-6.784099876666667,-1.309544041481481,False,1.5392000000000001
mp-1029660,Ca8 Zr2 N8,18,Triclinic,2,307.3246764819375,3.32365139486545,17.073593137885418,2.69554282,-11.053394223333335,-1.340286513333334,False,1.2411
mp-8439,Ca10 Al4 Sb12,26,Orthorhombic,55,766.4278593453566,4.267816264645626,29.477994590206023,4.94875706,-4.112662771923075,-0.859342887307689,False,0.15559999999999902
mp-1246246,Ca20 Cu8 N16,44,Tetragonal,130,787.7230006511788,3.233783166206614,17.902795469344973,3.41052647,-9.297458139090908,-0.806543304090909,True,0.313899999999999
mp-17558,Ca10 Ga4 As12,26,Orthorhombic,55,622.948030744243,4.208288177953316,23.959539644009347,3.7677710600000003,-4.334774090384615,-0.9420874257692301,False,0.08899999999999901
mp-1196062,Ca30 I12 O72,114,Trigonal,167,1514.4557103591715,4.251137704897617,13.284699213676943,5.4364731,-6.171571967105264,-2.35833214131579,False,2.541299999999999
mp-649479,Ca10 In4 Sb12,26,Orthorhombic,55,802.1678512880251,4.804975392754928,30.852609664924042,4.97698796,-3.935377689999998,-0.8338119725640991,True,0.1562
mp-558966,Ca30 Re12 O72,114,Trigonal,167,1486.7800728816053,5.12506854607997,13.041930463873731,3.89465329,-7.847980824298246,-2.884835567719299,False,2.1283
mp-571333,Ca10 Si4 N12,26,Monoclinic,15,371.0034709658716,3.048928880683531,14.269364267918139,4.32042853,-6.767149556538461,-1.312664792692308,False,2.1605
mp-18670,Ca10 Sn4 As12,26,Orthorhombic,55,674.3041491424633,4.37031886283088,25.93477496701782,4.2254443,-4.407714088461537,-0.8640311419230751,False,0.242099999999999
mp-561360,Ca51 W12 N56 O3,122,Triclinic,2,1924.9247016244062,4.384366768161133,15.778071324790215,3.52031075,-7.166845281229508,-1.104791237172132,False,1.8087
mp-866314,Ca20 Al8 Si8 N32,68,Orthorhombic,60,893.7627513517448,3.140460891226038,13.143569872819777,4.94985467,-6.974332850588235,-1.381626434117646,True,2.7945
mp-1227139,Ca5 Co3 Si4 O16,28,Triclinic,2,363.8846936902314,3.4020897349299872,12.995881917508266,5.21974538,-7.714625269285714,-2.989736063571428,True,2.702999999999999
mp-675101,Ca10 Nb2 N10,22,Monoclinic,8,362.86140761546795,3.325365812626978,16.493700346157635,3.11766365,-10.834884292727272,-1.237675519431817,False,0.7783000000000001
mp-1105373,Ca10 P6 H2,18,Hexagonal,193,387.61570372004957,2.521717093162212,21.534205762224975,4.46288287,-8.535231790555555,-1.240475141964285,False,0.6829000000000001
mp-28879,Ca5 P8,13,Monoclinic,12,293.08513802771955,2.539264062615659,22.545010617516887,3.96668551,-9.304107062307692,-1.057331754908424,False,1.1418
mp-17564,Ca20 Sb12,32,Orthorhombic,62,1002.0662318354449,3.749521155235865,31.314569744857653,4.6194132,-3.859818635625,-1.057943245624999,False,0.24120000000000003
mp-1247440,Ca20 V4 N20,44,Orthorhombic,57,677.4254716184406,3.150983595954778,15.39603344587365,4.95958933,-9.918288729545454,-1.2887616762499992,False,1.7935999999999992
mp-1229248,Ca65 Ga24 Sn19,108,Trigonal,164,3218.401609374132,3.371181552396891,29.800014901612332,3.58204136,-3.147800361388888,-0.562428491157406,True,0.1482
mp-1227494,Ca12 Fe2 Co6 O24,44,Trigonal,155,508.64712489444514,4.342631349494903,11.560161929419207,4.02487939,-7.058241748863636,-2.454632534772726,True,0.20650000000000002
mp-17875,Ca12 Ga2 N10,24,Hexagonal,193,418.420311634898,3.017911027605057,17.434179651454084,2.5074943100000002,-9.260814243333334,-0.9844566178125,False,0.8130000000000001
mp-17577,Ca12 Mn2 N10,24,Hexagonal,193,410.07415398514337,2.959594673577079,17.086423082714308,3.754327179999999,-6.2414400075,-1.00085639941092,False,0.732399999999999
mp-989590,Ca6 Sn2 N1 F1,10,Cubic,225,238.46296574733603,3.557608847400585,23.846296574733604,4.76640113,-4.345057944000001,-1.314570633,True,0.132299999999999
mp-1246515,Ca12 Te6 N4,22,Trigonal,167,551.5352556049138,3.921701095476827,25.0697843456779,5.84585913,-13.98211225,-1.551299843409091,True,1.843299999999999
mp-567722,Ca14 Nb2 Si4 N18,38,Monoclinic,11,545.1625590380804,3.385171795143762,14.346383132581064,4.07016166,-7.138145814473684,-1.346796342631578,True,1.9855
mp-1029474,Ca28 Si4 N24,56,Orthorhombic,60,868.1597623930159,3.004270533805523,15.502852899875283,3.68660485,-6.088022391071428,-1.124152129642856,True,1.822099999999999
mp-569892,Ca18 B4 C8 Cl16,46,Orthorhombic,63,946.6037580777196,2.504975511613475,20.578342566906947,3.64285457,-5.190538051304348,-1.576964710797102,False,1.495499999999999
mp-560257,Ca18 Cr2 P14 O56,90,Trigonal,161,1178.3621898957554,3.036802997870041,13.092913221063949,1.95236407,-7.7841196833333335,-3.247349256499999,False,2.8908
mp-5615,Ca3 Ag3 As3,9,Hexagonal,189,192.72519211590506,5.760752154777389,21.413910235100563,4.38115227,-15.265532563333332,-0.8982986191666661,False,0.020699999999999
mp-1213950,Ca2 Ag2 As2 O8,14,Orthorhombic,63,202.6572849028098,4.701051864819798,14.4755203502007,2.05873852,-6.233755397142857,-2.046540524166666,False,1.3007
mp-12277,Ca3 Ag3 P3,9,Hexagonal,189,179.61759693289594,4.962268593426014,19.957510770321772,4.92405381,-13.324230092222223,-0.8588143732142851,False,0.007
mp-966582,Ca8 Al8 H40,56,Monoclinic,14,556.1979751516271,1.7220285972422151,9.932106699136199,1.3971609,-4.809843925,-0.37470763410714203,False,2.6885
mp-557180,Ca2 As4 Xe8 F40,54,Monoclinic,4,1099.143741159363,3.308742871563566,20.354513725173387,-4.29095598,-3.77808022574074,-1.934836184074074,False,2.6249000000000002
mp-28763,Ca16 As16 Pd16,48,Orthorhombic,62,1036.5331551418253,5.6754714553922785,21.59444073212136,3.97541946,-15.953612326458334,-1.051519560624998,False,0.16059999999999902
mp-1042415,Ca8 Bi16 O40,64,Orthorhombic,61,1009.5101056935114,7.080103191364232,15.773595401461115,3.3723698,-6.2930257854687515,-1.9773415948437512,False,0.05040000000000001
mp-1227238,Ca1 Bi1 I1 O2,5,Tetragonal,107,110.65538382421856,6.122036427857116,22.131076764843712,3.51993946,-5.6320310419999995,-2.168917279,False,1.553
mp-755893,Ca4 Bi4 O12,20,Monoclinic,14,289.0372280681903,6.826443674238326,14.451861403409515,4.01088681,-6.412126172499998,-2.264222731499998,False,0.665299999999999
mp-760403,Ca1 Cd3 O4,8,Orthorhombic,65,106.37982105652556,6.888620073323583,13.297477632065695,1.97161341,-4.9336731375,-1.848988828749998,True,0.1892
mp-753287,Ca1 Cd1 O2,4,Tetragonal,123,53.88608967997407,5.685125809470963,13.471522419993518,2.36222834,-5.5597009674999995,-2.344317947499998,False,0.37549999999999906
mp-1229253,Ca2 Ce8 Si6 O26,42,Hexagonal,173,579.4290982087994,5.117153557631417,13.795930909733318,7.4348282,-8.679423971428573,-3.615002708809524,True,0.16080000000000003
mp-1227227,Ca1 Ce1 N2,4,Tetragonal,123,61.580980308222266,5.6143393613539185,15.395245077055566,5.64930415,-15.4951035275,-1.460997576875,False,0.38919999999999905
mp-1227255,Ca1 Ce1 V2 O8,12,Tetragonal,119,171.19098836660086,3.977667952756905,14.265915697216741,0.96393949,-8.50315408,-3.028649919166666,False,1.5741
mp-1398496,Ca1 Co1 F6,8,Trigonal,148,112.71773403420669,3.137904648798422,14.089716754275836,-3.42122155,-5.312642777500001,-2.73487642125,False,1.3308