material_id,composition,nsites,crystal_system,space_group,volume,density,density_atomic,efermi,energy_per_atom,formation_energy_per_atom,is_gap_direct,band_gap
mp-562764,Ba14 B8 S26,48,Monoclinic,15,1274.0162889548762,3.705217457371726,26.542006019893254,1.8620906700000002,-5.6727275933333345,-1.758183174965278,False,2.5225
mp-583221,Ba14 B8 Se26,48,Monoclinic,15,1433.274094533001,4.706115102668259,29.859876969437522,1.48521101,-5.108297910625001,-1.5417462075889752,False,2.1858
mp-556409,Ba7 Ca2 Mn5 O20,34,Trigonal,166,526.327088321909,5.161897597834486,15.480208480056145,2.372734,-7.374778290000001,-2.60379826351927,False,0.7955000000000001
mp-707874,Ba14 Cu6 H34,54,Trigonal,159,907.6817787333254,4.277430999608264,16.808921828394915,1.15249989,-3.598453043888889,-0.507776227268518,False,1.4921
mp-22484,Ba7 Mn1 Fe6 F34,48,Monoclinic,12,770.6276881092191,4.303634127532965,16.054743502275397,1.90574575,-6.257423065,-3.37229915079023,False,2.1105
mp-559325,Ba14 Sc12 Al4 O38,68,Hexagonal,194,1059.8935269704286,4.978909493266198,15.586669514271009,2.43714339,-8.020128059264707,-3.522185413235294,True,2.420699999999999
mp-1228681,Ba14 Sr10 Mo8 N32,64,Monoclinic,4,1287.6210498216358,5.177186777486707,20.11907890346306,2.42995139,-7.28349720375,-1.0744344103125,False,2.0781
mp-561502,Ba32 B20 N40 F4,96,Triclinic,2,1907.74203741036,4.567052567655792,19.872312889691248,1.74614335,-6.955250246770833,-1.370025738472222,False,2.308
mp-865213,Ba8 Bi4 H2 O1,15,Tetragonal,139,546.1501525350221,5.936628089899559,36.410010169001474,2.84634979,-3.992488108666667,-1.149139399166667,True,0.5652
mp-2762127,Ba8 Bi4 O17,29,Monoclinic,8,530.2253923202923,6.910315881307328,18.283634217941113,3.0009065,-21.023068566206895,-2.144478016206895,True,0.9074000000000001
mp-561045,Ba8 Ce3 Sb4 O24,39,Tetragonal,139,633.5393461702952,6.264285120660729,16.24459861975116,3.15066021,-7.310804028974358,-2.992093305641025,True,1.8772000000000002
mp-1228663,Ba8 Eu1 B6 N12,27,Cubic,221,517.9294312844826,4.756349793490225,19.18257152905491,3.70742527,-7.320828903703703,-1.180992051851852,False,0.3669
mp-694888,Ba8 Mn8 O21,37,Monoclinic,6,533.2402162301847,5.836073603936207,14.411897735950939,2.75701814,-7.697052202702703,-2.492860230768872,False,0.8045
mp-34034,Ba8 P5 Br1,14,Tetragonal,82,484.8368527314639,4.566781995836918,34.63120376653314,3.16513898,-4.347836052142854,-1.200256503443875,True,1.308799999999999
mp-1104424,Ba8 Sb4 H2 O1,15,Tetragonal,139,525.5164018073013,5.067318167932068,35.03442678715342,2.94631761,-4.181433568,-1.274360343833332,True,0.636999999999999
mp-561455,Ba32 Sb24 S68,124,Monoclinic,13,3726.5831409693865,4.231851222898561,30.05308984652731,3.70831164,-5.091333434193548,-1.527529575887095,False,1.687999999999999
mp-1228480,Ba8 Si43 Ni3,54,Trigonal,155,1100.5044394197425,3.74562491395741,20.379711841106342,6.55186375,-5.141829917222221,-0.216257975555555,False,0.028699999999999
mp-1200444,Ba32 Si24 Sn4,60,Orthorhombic,60,2139.272585191482,4.302845397912483,35.6545430865247,3.43439672,-3.916965915,-0.45608061133333305,False,0.258899999999999
mp-1195594,Ba64 Sn32 S120,216,Orthorhombic,29,6502.604306898791,4.197042014707602,30.104649568975884,2.87738868,-5.193258925833333,-1.731574464629628,False,2.0442
mp-1195367,Ba16 U4 Pd2 Se32,54,Orthorhombic,58,1681.3478889340672,5.816024904886698,31.13607201729754,3.46205903,-5.497752701481481,-1.829268072129628,False,0.353299999999999
mp-28788,Ba36 Au8 O48,92,Orthorhombic,62,1824.3999849804316,6.632941395922018,19.830434619352516,2.24125839,-6.080772264891304,-2.463638764021739,True,1.8544
mp-1195654,Ba18 U8 Ag20 S48,94,Tetragonal,108,2402.599891907676,5.579318404065036,25.559573318166766,3.91148489,-5.569653082021276,-1.5231334883333312,False,0.4032
mp-7394,Ba1 Ag2 Ge1 S4,8,Tetragonal,121,195.46732736462647,4.70604412291684,24.43341592057831,3.38929799,-4.61499012875,-1.017325576041665,False,0.5960999999999991
mp-569790,Ba1 Ag2 Ge1 Se4,8,Orthorhombic,23,223.01132455037617,5.52152132974412,27.87641556879702,2.9147817700000003,-4.22504241125,-0.9486019034635401,False,0.035
mp-555166,Ba1 Ag2 Sn1 S4,8,Orthorhombic,23,204.39579007368775,4.874752565136565,25.54947375921097,3.669229,-4.53063181125,-1.009649258541665,False,0.3679
mp-569114,Ba1 Ag2 Sn1 Se4,8,Orthorhombic,23,235.41360111428753,5.555595827459082,29.42670013928594,3.12994403,-4.16684470625,-0.96708619846354,False,0.065399999999999
mp-9899,Ba2 Ag2 P2,6,Hexagonal,194,158.5344961850996,5.785357274519447,26.422416030849934,3.86383053,-4.115009856666667,-0.72254780876984,False,0.1217
mp-1086652,Ba2 Ag2 S2 F2,8,Tetragonal,129,174.53310087318576,5.637314434554091,21.81663760914822,2.57443434,-4.9533515875,-2.249820447291666,True,1.4324
mp-1205316,Ba2 Ag2 Sb2,6,Hexagonal,194,192.5591876307241,6.328895056002942,32.09319793845402,4.06087267,-3.808687523333333,-0.8450495705555541,False,0.0415
mp-1190401,Ba4 Ag4 Sb4 S12,24,Monoclinic,15,664.0076507774867,4.632952646874406,27.666985449061944,3.28306337,-4.668578166666667,-1.117579406527777,True,1.422899999999999
mp-1079647,Ba2 Ag2 Se2 F2,8,Tetragonal,129,185.53016604624426,6.142612558392519,23.191270755780533,2.49357384,-4.805982800000001,-2.263063682252604,True,1.269299999999999
mp-16742,Ba2 Ag2 Te2 F2,8,Tetragonal,129,206.5936401377877,6.298244067181046,25.824205017223463,3.4487153,-4.63814405,-2.183376328333333,True,1.510999999999999
mp-1207108,Ba1 Al1 Ge1 H1,4,Trigonal,156,87.31759892995997,4.5252736413746,21.829399732489993,3.73762939,-3.9766139575,-0.5559276915625,False,0.7492999999999991
mp-644097,Ba4 Al4 H20,28,Orthorhombic,33,332.5851951436852,3.382103234435417,11.878042683703043,1.68401729,-3.685039141785714,-0.450698718392857,False,2.7537000000000003
mp-571093,Ba1 Al1 Si1 H1,4,Trigonal,156,85.61512097687623,3.751107717406331,21.403780244219057,3.87963666,-4.081088935,-0.45983012531250006,False,0.709299999999999
mp-31243,Ba6 As12,18,Monoclinic,7,547.2425624795424,5.228292189511429,30.402364582196796,3.24069539,-4.532290752777779,-0.7792174177777801,False,0.41449999999999904
mp-1214472,Ba1 As2 Xe5 F22,30,Orthorhombic,69,607.3861752073278,3.722491887822,20.24620584024426,-3.74489192,-3.619094796333333,-1.834266692833333,False,2.601099999999999
mp-1190864,Ba1 Au2 S4 O16,23,Monoclinic,12,390.9375063946651,3.888705968002586,16.99728288672457,-0.7295966500000001,-6.275245334782609,-1.74535171347826,False,1.785299999999999
mp-866301,Ba4 B4 Sb4 S16,28,Orthorhombic,62,732.6209720150708,3.609817020994163,26.165034714823957,2.42408514,-5.393291780357144,-1.210319463095237,False,2.3423
mp-1041349,Ba4 Bi4 F28,36,Monoclinic,14,622.3936010988632,5.115027534755005,17.28871114163509,-0.6531382,-4.967947967222222,-2.833950647777778,True,0.35250000000000004
mp-2767120,Ba4 Bi4 F28,36,Monoclinic,14,549.6551712367889,5.791922961286113,15.268199201021913,-1.8504935100000002,-14.623595200555554,-2.747589091666665,True,2.5411
mp-551243,Ba2 Bi2 I2 O4,10,Orthorhombic,63,265.77374666609904,6.313054354854154,26.577374666609906,2.33286177,-5.629911883,-2.184123108,False,2.947
mp-1228172,Ba2 Bi2 N2 O10,16,Monoclinic,8,290.3331073133751,5.036654550171147,18.145819207085943,1.25755121,-6.67422861,-1.8133421075,False,2.219299999999999
mp-27365,Ba8 Bi8 Se24,40,Orthorhombic,19,1254.1615237266026,6.177229599398782,31.354038093165066,2.87156278,-4.576548426749997,-1.3171996901562482,False,0.9943999999999991
mp-1029375,Ba1 C1 N2,4,Trigonal,166,83.04499919984701,3.546251223939149,20.761249799961753,0.6340318500000001,-7.930306045,-0.974257064375001,False,2.8508
mp-1214597,Ba8 Ca16 W8 N32,64,Orthorhombic,61,1141.9220491213312,5.320483727141021,17.8425320175208,5.08970699,-7.741635760468751,-1.21145877171875,False,2.578899999999999
mp-606338,Ba4 Ca16 Co8 N16,44,Tetragonal,130,849.5665520815402,3.6865746220164413,19.308330729125913,3.14724569,-6.008386464090909,-0.775539293181818,False,0.29140000000000005
mp-569603,Ba4 Ca16 Cu8 N16,44,Tetragonal,130,858.6289182876634,3.719032012407539,19.514293597446894,3.11687365,-5.437178013863637,-0.7560053975000001,False,0.21879999999999902
mp-16252,Ba4 Ca4 Ge4,12,Orthorhombic,62,403.4526850792667,4.11656192920288,33.621057089938894,2.93059898,-3.432007458333333,-0.5828065666666661,True,0.18129999999999902
mp-1102214,Ba4 Ca4 Pb4,12,Orthorhombic,62,470.644327159618,5.427891856799928,39.22036059663483,3.28767324,-3.136814856666665,-0.5910742266666641,False,0.21520000000000003
mp-16253,Ba4 Ca4 Si4,12,Orthorhombic,62,400.1056717595829,3.411348822570092,33.342139313298574,3.02787046,-3.510338259166668,-0.393707309166668,True,0.17670000000000002
mp-11265,Ba4 Ca4 Sn4,12,Orthorhombic,62,461.3195490007541,4.263513451977776,38.44329575006284,3.29969359,-3.320832460000003,-0.676116901666669,False,0.24370000000000003
mp-1190335,Ba2 Cd2 As4 O14,22,Triclinic,2,340.6479010114255,4.9875169731078755,15.483995500519342,0.72859186,-6.361169388636363,-2.101627822272726,False,2.5654
mp-1095151,Ba2 Cd2 As2 F2,8,Tetragonal,129,194.01968104356098,5.882470652399688,24.252460130445122,2.73520641,-4.31413522375,-1.948395214375,True,0.9586000000000001
mp-13831,S32 Ge8 Cd8 Ba8,56,Orthorhombic,43,1558.1533787323967,3.841994063527975,27.824167477364227,1.39135044,-4.723963744642857,-1.287470708214284,False,2.6727
mp-7899,Ba4 Cd4 O8,16,Orthorhombic,62,275.1675887508609,6.800727731381949,17.197974296928805,1.79066562,-5.330421371874999,-2.136694586874999,False,0.9746999999999991
mp-1078693,Ba2 Cd2 Sb2 F2,8,Tetragonal,129,210.45717480728683,6.162151834207116,26.307146850910854,3.65210444,-4.17675826875,-1.946298582499999,True,0.289699999999999
mp-12306,Ba8 Cd8 Sn8 S32,56,Orthorhombic,43,1606.086617582883,4.108386333155849,28.68011817112291,1.65335943,-4.629087092857146,-1.280230627857144,True,2.196399999999999
mp-4887,Ba2 Ce2 N4,8,Hexagonal,194,148.71280308184802,6.821501240398689,18.589100385231003,5.11252325,-7.36027853,-1.227158454999999,False,0.6481
mp-3187,Ba4 Ce4 O12,20,Orthorhombic,62,344.64733173556965,6.272009404625958,17.232366586778483,2.8039082,-8.129798318000002,-3.589836753000001,True,2.2207
mp-1194023,Ba2 Co4 P4 O16,26,Monoclinic,14,388.9958821397727,3.8003790846604213,14.961380082298948,1.21513299,-7.687049056923077,-2.563938020714286,False,2.284099999999999
mp-19203,Ba4 Co8 Si8 O28,48,Monoclinic,15,661.5232135622543,4.250832746760687,13.781733615880299,3.34272351,-7.818173597083333,-2.6788259741666662,False,0.044799999999999
mp-19086,Ba3 Co3 O6,12,Trigonal,152,202.50978673214274,5.615032013268026,16.875815561011894,2.85091042,-6.812026236666665,-2.074947819166665,True,0.39670000000000005
mp-19278,Ba2 Co2 P4 O14,22,Triclinic,2,301.6934852748219,4.075244815659921,13.713340239764632,1.64383526,-7.709688644545455,-2.753409940389611,False,2.418199999999999
mp-541137,Ba4 Cr8 O16,28,Orthorhombic,59,382.52452444182234,5.301521253614749,13.661590158636512,2.95635865,-8.462594923214283,-2.603035794642854,True,2.2386
mp-572430,Ba8 Cr16 O56,80,Monoclinic,15,1287.0882869870213,3.646639418585245,16.088603587337765,-1.14219937,-7.691524560375001,-2.105444868875,True,2.6252
mp-1029770,Ba4 Cr4 N8,16,Orthorhombic,64,265.0919368016415,5.445593754413674,16.568246050102594,4.65772022,-8.046926353125,-0.9847818781250001,False,0.0102
mp-18571,Ba4 Cr4 O16,24,Orthorhombic,62,373.1959993673475,4.5086112331488515,15.549833306972813,0.00978253,-7.6886461425000086,-2.46133507083334,False,2.9695
mp-19110,Ba2 Cr2 P4 O14,22,Triclinic,2,306.7090788761364,3.933487008903885,13.94132176709711,4.63287435,-8.075307480454546,-2.889971435389609,False,0.034300000000000004
mp-9639,Ba2 Cu2 Se4 O12,20,Monoclinic,15,331.7367537315327,4.552980984354463,16.586837686576636,1.7358219300000002,-6.0030099515,-1.73323289196875,False,0.3659
mp-17947,Ba3 Cu6 Ge3 S12,24,Trigonal,152,530.8754911051351,4.3664497092684,22.11981212938063,4.07895182,-4.969327109583333,-1.057595308958333,False,0.973599999999999
mp-17252,Ba3 Cu6 Ge3 Se12,24,Trigonal,152,618.3296863282166,5.260127339908696,25.763736930342358,3.23217502,-4.5426036679166675,-0.9520959122135421,False,0.3567
mp-17954,Ba3 Cu6 Sn3 S12,24,Trigonal,152,567.987043038227,4.485215410128759,23.666126793259455,4.36887867,-4.887482131666666,-1.0524323310416661,False,0.38429999999999903
mp-12364,Ba2 Cu4 Sn2 Se8,16,Orthorhombic,40,437.9902632102209,5.299959512046295,27.374391450638807,3.26571237,-4.489435676249999,-0.9756099205468741,False,0.452999999999999
mp-27424,Ba2 Cu8 S6,16,Orthorhombic,63,288.22781207768986,5.619546983876272,18.014238254855616,5.45975596,-4.66504713125,-0.823687090937498,False,0.030799999999999002
mp-6571,Ba4 Cu4 As8 O28,44,Monoclinic,14,677.4477896731339,4.5367413654436515,15.396540674389406,1.77434015,-6.515095888636363,-1.9701728240909082,False,0.6804999999999991
mp-9195,Ba2 Cu2 Se2 F2,8,Tetragonal,129,168.0810835441171,5.904545697556149,21.010135443014637,3.85433275,-5.09518990875,-2.238203543085938,True,1.4265
mp-9503,Ba2 Dy2 Cu2 Te6,12,Orthorhombic,63,380.67896341561743,6.509681574336711,31.72324695130145,4.61224519,-4.794453870000001,-1.450041400277777,False,0.5186000000000001
mp-1102849,Ba2 Er2 Ag2 Se6,12,Orthorhombic,63,332.24938698198036,6.490575144013352,27.68744891516503,2.6833293400000002,-5.066844673333334,-1.7639503631163191,False,1.3771
mp-14969,Ba2 Er2 Cu2 S6,12,Orthorhombic,63,274.7663079213209,5.612282881480234,22.897192326776743,3.87834942,-5.791200730833334,-1.957704210416666,False,1.157499999999999
mp-1101781,Ba2 Er2 Cu2 Se6,12,Orthorhombic,63,307.89012561345135,6.526003779823118,25.657510467787613,3.55432376,-5.3194655866666665,-1.8071931111718742,False,0.9489000000000001
mp-1080821,Ba2 F6,8,Monoclinic,11,143.6465255395852,4.492689528503932,17.95581569244815,-2.17887995,-5.10831957,-3.19318655375,False,0.7896000000000001
mp-1190858,Ba1 Fe2 P4 O14,21,Triclinic,2,281.60710697403056,3.519732996623059,13.409862236858597,0.72112023,-7.868154622857143,-2.639946740408162,False,1.7887
mp-1103865,Ba2 Fe4 P4 O16,26,Trigonal,148,337.45047071253356,4.320099295323818,12.978864258174367,2.64470123,-7.9642615142307704,-2.635519018021978,False,2.1328
mp-561035,Ba2 Fe4 Se8 O24,38,Monoclinic,13,590.3279377507968,4.2578999911027005,15.534945730284125,0.8531783,-6.525103255,-1.671514027072368,True,1.8294000000000001
mp-1215009,Ba4 Fe8 Pb4 O20,36,Orthorhombic,62,509.5454269895005,6.98979323840502,14.154039638597236,5.21297608,-7.209144754722222,-1.952314815277776,False,1.3233000000000001
mp-1194498,Ba2 Fe6 P6 O24,38,Orthorhombic,74,490.2126468673131,3.995597574268714,12.900332812297712,1.75152092,-7.9814704192105275,-2.562997197838346,True,1.1157
mp-1227983,Ba1 Ga2 Ge1 S6,10,Triclinic,1,241.64979824809052,3.723094554283116,24.164979824809052,2.28882112,-4.967843156,-1.225007931499999,False,2.7662999999999993
mp-769971,Ba2 Ga8 O14,24,Monoclinic,15,363.52341689578265,4.825666079210323,15.146809037324276,0.47625858,-6.541863574166666,-2.48627306875,False,2.5768
mp-4309,Ba2 Ga8 S14,24,Orthorhombic,31,556.2945318144618,3.824823524635017,23.178938825602575,2.0651257100000002,-4.841396525,-1.2580735247916661,False,2.58
mp-1018095,Ba1 Ga1 Ge1 H1,4,Trigonal,156,87.47111903716372,5.32872907554901,21.86777975929093,3.16445959,-3.774595865,-0.5332795509375,False,0.0661
mp-1008506,Ba1 Ga1 Si1 H1,4,Trigonal,156,83.72581902162052,4.683446659865512,20.93145475540513,3.35288238,-3.879044827499999,-0.43715596968749904,False,0.4792
mp-1018094,Ba1 Ga1 Sn1 H1,4,Trigonal,156,99.32264378936175,5.463114043089162,24.830660947340437,3.76941586,-3.629355905,-0.5414035909375,True,0.0524
mp-17143,Ba4 Gd8 O16,28,Orthorhombic,62,455.25957680345056,7.525789184512779,16.259270600123234,1.99711456,-10.728941319642857,-3.6056465425,True,2.8146
mp-505438,Ba2 Gd4 Pd2 O10,18,Tetragonal,127,258.0732094693422,8.213398811928617,14.337400526074568,3.59063722,-9.680838214444462,-3.015181963888906,False,0.027500000000000004
mp-1202710,Ba4 Gd8 Sc8 O28,48,Tetragonal,136,681.6015836428928,6.370594836585991,14.200032992560267,5.25514796,-10.22598172375,-3.7783246683333322,False,2.9688
mp-1197749,Ba2 Gd4 Si6 O20,32,Monoclinic,11,445.11211296096945,5.193585384330421,13.909753530030295,2.94051982,-9.5568524996875,-3.5676785271875,False,0.145799999999999
mp-1102297,Ba2 Gd2 Cu2 S6,12,Orthorhombic,63,285.1600217431145,5.291153949617727,23.763335145259543,3.78355684,-7.3761560316666674,-1.957925606249999,False,1.0862
mp-20157,Ba2 Gd2 Cu2 Se6,12,Orthorhombic,63,320.7895062338133,6.159962885594262,26.732458852817775,3.38691974,-6.920022483333333,-1.8230161028385412,False,0.8826
mp-1095273,Ba2 Gd2 Cu2 Te6,12,Orthorhombic,63,386.66929050887836,6.363740886809432,32.22244087573986,4.45120751,-6.390697806666665,-1.469994218333331,False,0.503099999999999
mp-2139,Ba8 Ge16,24,Orthorhombic,62,741.2725268258605,5.064587686842674,30.886355284410854,2.264938899999999,-4.251933381250001,-0.5302564979166671,False,0.5255000000000001
mp-28710,Ba4 Ge8 S20,32,Cubic,227,859.3685018603461,3.423471482862407,26.855265683135816,1.62641984,-5.1275307440625,-1.145427183124999,False,2.277999999999999
mp-1029679,Ba2 Ge14 N20,36,Monoclinic,7,516.4872444197325,5.053268953007086,14.346867900548126,2.67727608,-6.891897073055555,-0.35506666333333303,False,2.1552
mp-1029743,Ba16 Ge16 N32,64,Orthorhombic,61,1045.9830367074549,6.044851396887332,16.343484948553982,3.41969702,-6.40379583140625,-0.59915626015625,False,2.4971
mp-1195469,Ba8 Ge8 S24,40,Monoclinic,14,1100.0027687662705,3.697401324024579,27.500069219156764,1.63119904,-5.224138662749996,-1.432722363249995,False,2.4497
mp-23715,Ba4 H8,12,Orthorhombic,62,225.60633192668374,4.1024432943265055,18.800527660556977,-0.07323745,-3.507849477500001,-0.6047468716666671,False,2.8697
mp-23862,Ba2 H2 I2,6,Tetragonal,129,177.91030492741652,4.951263531211693,29.651717487902754,1.992644219999999,-3.678794010000002,-1.399409345416668,True,2.811099999999999
mp-10322,Ba2 Hf2 N4,8,Tetragonal,129,143.91670443254245,7.934364724872101,17.989588054067806,3.37402275,-8.65930405375,-1.52112418875,False,1.2537
mp-1105549,Ba4 Hf4 S12,20,Orthorhombic,62,493.2895787527485,5.547751676715811,24.664478937637426,3.05000132,-6.997449220499999,-2.139200685999998,True,1.252399999999999
mp-555736,Ba4 Hg8 Cl8 O8,28,Tetragonal,127,644.1561321866062,6.613858339360985,23.00557614952165,0.48727674,-3.9640420025000003,-1.659566770357145,False,1.610999999999999
mp-1190454,Ba2 Hg2 As4 O14,22,Triclinic,2,351.4374503089487,5.66768434924757,15.974429559497668,0.97486913,-6.127376939999999,-1.9269570238636362,False,1.4956
mp-3915,Ba1 Hg1 O2,4,Trigonal,166,97.46807538236183,6.302162373093815,24.367018845590458,-0.14778873,-4.99208084,-1.9609385931250012,False,2.2727
mp-560702,Ba6 Hg6 Ru6 O30,48,Hexagonal,176,802.209739699042,6.445645054847969,16.712702910396708,1.85183615,-6.274524870416667,-1.744168052604168,False,0.35040000000000004
mp-28007,Ba4 Hg4 S8,16,Orthorhombic,26,460.1347096257203,5.803646072710984,28.758419351607518,1.81003923,-4.030674986249998,-1.404333458124999,False,1.1569
mp-1228148,Ba2 In2 Cu2 F14,20,Monoclinic,15,302.7043876065769,4.922626853091321,15.135219380328845,1.78469549,-5.1664471135,-2.949014915666667,True,1.3409
mp-555699,Ba4 La4 Bi8 S24,40,Monoclinic,14,1051.0347597496454,5.60288284273168,26.275868993741135,4.99819056,-5.43376809875,-1.487247291749999,False,0.837299999999999
mp-1201929,Ba4 La4 Sb8 Se24,40,Monoclinic,14,1170.0219040444695,5.64012097170638,29.250547601111737,4.39541299,-4.988319605,-1.37947426590625,False,0.6452999999999991
mp-1228069,Ba2 La4 Si4 S16,26,Monoclinic,9,682.0272645894046,3.5441057899632913,26.231817868823253,3.38514114,-6.155938891153847,-1.867592602692307,False,2.7289000000000003
mp-1105217,Ba2 La4 Pd2 O10,18,Tetragonal,127,287.5049847312559,6.948787197619837,15.972499151736438,5.10458175,-7.662284298333333,-3.027764744444444,False,2.3421
mp-8809,Ba2 La4 Pt2 O10,18,Tetragonal,127,289.6913647108643,7.912804135678524,16.093964706159127,5.7969263600000005,-7.764323086111111,-3.030775586666667,False,2.4067
mp-16452,Ba2 La4 Zn2 S10,18,Tetragonal,140,442.24465353684934,4.812688562979128,24.569147418713854,4.82198747,-5.898902267222223,-2.149732200833333,True,1.4565000000000001