material_id,composition,nsites,crystal_system,space_group,volume,density,density_atomic,efermi,energy_per_atom,formation_energy_per_atom,is_gap_direct,band_gap
mp-1198227,Cs4 H20 N8,32,Orthorhombic,62,379.21949430056617,2.90681953863786,11.850609196892693,2.028895,-7.976958181875,-0.39676863828125003,False,2.0856
mp-1213477,Cs4 Hf24 C4 Cl60,92,Orthorhombic,51,2612.0393140260317,4.444103114275744,28.391731674195995,2.04241715,-6.431639237173913,-2.187816661398051,False,1.2179
mp-619510,Cs2 Hg4 Br10,16,Monoclinic,11,586.3510116491043,5.287918993472978,36.64693822806902,-1.11592332,-2.371380036249999,-1.157373246206897,True,1.9907
mp-1542042,Cs1 Hg5 Cl11,17,Monoclinic,12,593.9738609571729,4.265700101040478,34.939638879833694,1.10021171,-2.5168822552941172,-1.1762758695385411,False,2.8387000000000002
mp-29845,Cs9 Hg9 Cl27,45,Trigonal,145,1469.7441149643835,4.4725877396285565,32.660980332541854,-0.92326246,-2.905680173333336,-1.553024571764372,False,2.0
mp-561947,Cs1 Hg1 F3,5,Cubic,221,97.04743386104975,6.681526473864588,19.409486772209952,-0.75456646,-3.638687946000002,-2.246846599431038,False,0.7228
mp-1213418,Cs2 Ho2 Nb12 Br36,52,Trigonal,163,1584.4841095414367,4.807271713603186,30.470848260412247,2.22721201,-5.189509748846154,-1.513412637102122,True,0.9589000000000001
mp-1190472,Cs2 Ho4 Ag6 Te10,22,Orthorhombic,63,714.1990284951058,6.623428721833469,32.46359220432299,3.60034928,-4.176104259090909,-1.053497077089862,True,1.1763
mp-672258,Cs2 Ho4 Cu6 Se10,22,Triclinic,1,527.357603890216,6.60115197554742,23.970800176827996,4.85364462,-4.944716856818181,-1.3192155933067191,False,1.291399999999999
mp-18505,Cs4 Ho12 Te20,36,Orthorhombic,62,1371.884852969919,6.128031325268898,38.10791258249775,3.10972483,-29.544887744444445,-1.6739314894444481,True,0.843399999999999
mp-12490,Cs2 Ho2 Cd2 Te6,12,Orthorhombic,63,458.10451440646557,5.7492781885686775,38.1753762005388,2.6513848700000002,-3.925997449999997,-1.27673329910919,True,1.546799999999999
mp-1213649,Cs2 Ho2 Mn2 Se6,12,Orthorhombic,63,378.67155519375615,5.171464216430261,31.555962932813014,2.608223579999999,-5.754420969166667,-1.561853175769575,False,0.5124000000000001
mp-754154,Cs2 Ho2 O4,8,Hexagonal,194,145.82792685979186,7.511636542455038,18.228490857473982,2.34369422,-6.82052683125,-2.970132069913791,False,2.8143000000000002
mp-1078726,Cs2 Ho2 S4,8,Hexagonal,194,229.56216945373188,5.236562334658693,28.695271181716485,2.30194592,-20.6318219325,-2.116873162656251,False,2.2237
mp-1193331,Cs4 Ho4 Si4 S16,28,Orthorhombic,19,763.2989369252491,3.9522431321393823,27.260676318758897,2.01244785,-5.641314595714285,-1.714969833522166,False,2.9111000000000002
mp-505712,Cs2 Ho2 Zn2 Se6,12,Orthorhombic,63,362.32682957650707,5.5007277807118165,30.193902464708923,1.49777864,-4.520849744166668,-1.645327231114404,True,2.1295
mp-579556,Cs2 Ho2 Zn2 Te6,12,Orthorhombic,63,452.0501204013798,5.480969623778268,37.670843366781654,2.769937859999999,-3.9989465625,-1.2997268416091932,True,1.3765
mp-22876,Cs4 I12,16,Orthorhombic,62,805.5087520688634,4.235257200307448,50.34429700430396,0.62356098,-2.4835233243749992,-1.113519470538793,False,1.6766
mp-571011,Cs4 I16,20,Monoclinic,14,982.2274545172627,4.331436718846286,49.111372725863134,0.71583244,-2.376575653500003,-0.9757700474310381,False,1.7836
mp-22990,Cs1 I1 Cl2,4,Trigonal,166,145.57159169159777,3.772485427136273,36.392897922899444,0.56840432,-2.946586252499999,-1.414317306163793,False,2.2301
mp-23489,Cs4 I4 O16,24,Orthorhombic,62,503.58229283847345,4.27096065783515,20.982595534936394,-0.86734012,-4.871871787916665,-1.167899420359194,False,2.5553
mp-559213,Cs4 In12 O20,36,Orthorhombic,62,566.7497897823531,6.532068853572471,15.743049716176476,3.82065468,-5.688943607500001,-1.919465404683909,False,1.47
mp-22007,Cs1 In5 S8,14,Monoclinic,12,342.2249336522706,4.675156284136773,24.444638118019327,3.79683205,-15.322388539285713,-0.8737172851785691,False,1.272499999999999
mp-1112338,Cs2 In2 Br6,10,Cubic,225,382.1688493634601,4.235853401834922,38.216884936346005,0.8096348600000001,-3.261870632,-1.546272448264368,False,1.3782
mp-1194853,Cs8 In8 Hg8 S24,48,Monoclinic,15,1510.4114360574495,4.789039780228177,31.46690491786353,1.57090059,-3.6623365875,-0.9303529118869731,True,1.379
mp-607987,Cs4 In4 I16,24,Monoclinic,14,1189.730379872715,4.217001806314527,49.57209916136313,1.03596152,-2.785796061250001,-1.158595765636974,False,2.4128
mp-559459,Cs8 In8 S16,32,Monoclinic,15,1036.7503841080547,3.995907581009716,32.39844950337671,1.55199071,-17.117215313125,-1.177954927031249,True,2.4776
mp-1200720,Cs8 In8 Se16,32,Monoclinic,15,1164.0839462948793,4.629128688764159,36.37762332171498,1.16516356,-20.231303315625,-1.153762355156246,True,1.630199999999999
mp-1199743,Cs8 In8 Te16,32,Monoclinic,15,1426.5845461641318,4.683208109241317,44.58076706762912,1.95905686,-25.5614820721875,-0.931109072187499,True,1.3522
mp-557807,Cs4 K8 Au4 O8,24,Orthorhombic,62,603.6011975771952,4.842595722311495,25.1500498990498,1.37102432,-3.977452331666666,-1.254032160692528,False,2.1843
mp-863759,Cs1 K2 Bi1,4,Cubic,225,170.8421047372295,4.083087852646046,42.710526184307376,1.7431348500000001,-24.422884145,-0.5110704906250021,True,0.30099999999999905
mp-551244,Cs4 K8 Co4 O8,24,Tetragonal,139,541.7758259868706,3.7029288518524712,22.57399274945294,1.68249862,-4.596480021666665,-1.229804064025859,False,1.675799999999999
mp-8959,Cs2 K4 Pd2 F10,18,Tetragonal,127,330.7841258696071,4.141648112461453,18.376895881644842,-1.20821372,-4.515015265,-2.523919631572797,False,1.866099999999999
mp-581024,Cs1 K2 Sb1,4,Cubic,225,160.3521637304515,3.446978376280063,40.08804093261288,1.820242599999999,-16.2693871475,-0.556562996875001,True,0.8633999999999991
mp-14429,Cs8 K32 Ga8 O32,80,Orthorhombic,61,1684.3498737401512,3.336313931708577,21.05437342175189,0.59141323,-4.529837391125,-1.704497740740517,False,2.2621
mp-562074,Cs8 K32 Tl8 O32,80,Orthorhombic,61,1759.0290022730383,4.211635766674823,21.98786252841298,0.75736954,-4.147272794125,-1.387595534323851,False,1.5380999999999991
mp-654335,Cs4 K20 Ru8 O36,68,Orthorhombic,62,1320.1269037663762,3.393873696198824,19.413630937740827,1.6638513,-5.749431401176471,-1.652650206523833,True,0.2671
mp-1213403,Cs2 La2 Nb12 Br36,52,Trigonal,163,1634.3115332350544,4.607821047001314,31.42906794682797,2.23973261,-5.226400147884615,-1.537290434602121,True,0.9812000000000001
mp-1213395,Cs2 La2 Ta12 Br36,52,Trigonal,163,1633.6039020664164,5.683734760450361,31.415459655123392,2.51803499,-5.6140347594230775,-1.517473699371352,True,1.3172000000000001
mp-505815,Cs2 La4 Cu2 Se8,16,Orthorhombic,63,490.9593193778793,5.3446215870860865,30.684957461117456,3.84969122,-5.426969509375,-1.819113964253771,False,1.075399999999999
mp-1213677,Cs4 La24 Fe4 I40,72,Orthorhombic,62,3196.7943157393506,4.760611014721097,44.39992105193542,4.93261951,-4.507362518472223,-1.494353209564177,True,0.11959999999999901
mp-12491,Cs2 La2 Cd2 Te6,12,Orthorhombic,63,492.8746482942158,5.16833182904251,41.072887357851315,2.73702907,-4.071785804166661,-1.366133713275856,True,1.730099999999999
mp-11124,Cs2 La2 Hg2 Se6,12,Orthorhombic,63,412.1266697206757,5.715663491553581,34.34388914338964,1.85707442,-4.303747007499997,-1.530181816531069,True,1.4545
mp-1178449,Cs2 La2 O4,8,Hexagonal,194,168.8840569283063,5.974369886696811,21.11050711603829,3.85066342,-6.849405664999999,-2.914428993663793,False,2.9322
mp-561586,Cs1 La1 S2,4,Trigonal,166,131.64959753221544,4.237331790916125,32.91239938305386,2.83419254,-19.889689835,-2.158881992656248,False,2.5035
mp-510460,Cs2 La2 Zn2 Te6,12,Orthorhombic,63,483.867069581675,4.941940810639995,40.322255798472916,2.90571559,-4.12203623,-1.366428569109195,True,1.587399999999999
mp-642740,Cs3 Li3 H12 N6,24,Hexagonal,180,311.66902266368425,2.7474601197899613,12.98620927765351,0.55871336,-4.645670042916667,-0.5114048326652301,False,1.996999999999999
mp-1225894,Cs1 Li1 Mn1 S2,5,Tetragonal,119,122.50984672107538,3.50941290450225,24.501969344215077,3.5505405,-5.299377454,-1.248250481183908,False,0.809299999999999
mp-1225887,Cs1 Li1 Zn1 S2,5,Tetragonal,119,119.21303474315881,3.752316748058588,23.84260694863176,3.95145796,-3.79783172,-1.3271590835977,True,2.5019
mp-1213352,Cs2 Lu2 Nb12 Br36,52,Trigonal,163,1524.6330968382788,5.017848723601268,29.319867246889977,2.13354313,-5.180992764807692,-1.507818422743148,True,0.9749999999999991
mp-570921,Cs2 Lu2 Nb12 Cl36,52,Trigonal,163,1341.4436544965379,3.722201695474475,25.79699335570265,2.58667013,-5.731593736730769,-1.911929672743148,True,0.946299999999999
mp-1213389,Cs2 Lu2 Ta12 Br36,52,Trigonal,163,1509.08387682735,6.232081984393861,29.020843785141345,2.43945349,-5.568155941538464,-1.487530252704688,True,1.3127
mp-581696,Cs2 Lu4 Cu6 Se10,22,Orthorhombic,63,505.2085150496382,7.02251205197347,22.964023411347192,3.80863894,-4.910867004545454,-1.299182470427932,False,1.2562
mp-1202825,Cs4 Lu28 S44,76,Orthorhombic,64,1939.6403816035775,5.857103267013715,25.521583968468125,3.92666041,-6.436756435394737,-2.327190909806412,False,2.031799999999999
mp-1203743,Cs4 Lu28 Se44,76,Orthorhombic,64,2197.116490885719,6.730183482079323,28.909427511654197,3.15093977,-5.842592890000001,-2.104970995373848,False,1.510499999999999
mp-12492,Cs2 Lu2 Cd2 Te6,12,Orthorhombic,63,460.42063009548536,5.792752793650321,38.36838584129045,2.74316429,-3.882626441666667,-1.24602762605364,True,1.5415
mp-1087532,Cs2 Lu2 S4,8,Hexagonal,194,221.28746791734014,5.583005762275544,27.660933489667517,2.38667883,-5.476225239999998,-2.049629200330457,False,2.2447
mp-1225938,Cs2 Mg2 Co2 F12,18,Orthorhombic,74,285.08821768149545,3.845830728697557,15.838234315638637,0.23454529000000002,-5.268738450000001,-2.918185277183909,False,1.9747
mp-571020,Cs6 Mg6 H18,30,Orthorhombic,59,519.1655843728438,3.075033588209561,17.305519479094794,1.32272484,-2.865838065,-0.32104868468103503,False,2.9535
mp-560117,Cs2 Mn2 P8 O24,36,Monoclinic,4,545.1636806317798,3.068676828610609,15.143435573104995,1.40992505,-7.636565564722222,-2.575042285619867,False,0.9425000000000001
mp-1029801,Cs4 Mn8 N12,24,Monoclinic,15,519.794958700722,3.6393138847586632,21.658123279196747,1.66012321,-7.739018024583333,-0.36454445966954,False,0.0357
mp-567499,Cs2 Mn8 Cl18,28,Tetragonal,88,708.490221632982,3.148784738587263,25.303222201177928,1.22309805,-11.642019930714286,-1.698181232173644,False,1.8802
mp-23336,Cs3 Mn3 Cl9,15,Trigonal,166,422.315546166055,3.470400822528253,28.154369744403667,1.57825405,-13.551079429333333,-1.9012585557298851,False,1.482899999999999
mp-1228863,Cs2 Mn2 Cr2 F12,18,Orthorhombic,74,311.2374166375748,3.775565104075753,17.29096759097638,0.310188099999999,-6.548220118888889,-3.080869609731801,False,1.595799999999999
mp-554411,Cs4 Mn4 F16,24,Tetragonal,85,397.8297181990802,4.405018608051214,16.57623825829501,-0.33542525,-5.898114808750001,-2.9438810816810363,False,0.07600000000000001
mp-1228982,Cs2 Mn2 Fe2 F12,18,Orthorhombic,74,313.38999543946227,3.7904197461716693,17.41055530219235,0.33652506,-6.225310705,-2.889407558065134,True,1.1137
mp-1204512,Cs8 Mn8 In8 Te24,48,Monoclinic,15,1916.0516212986518,4.75242141328571,39.91774211038858,2.21938688,-23.95302697375,-0.8493518094971271,False,1.2444
mp-18994,Cs4 Mn4 O16,24,Orthorhombic,62,458.34538199554953,3.649579521513815,19.097724249814565,-1.96204409,-6.466609651249995,-1.4896368375143632,False,2.2208
mp-1225934,Cs2 Mn2 V2 F12,18,Orthorhombic,74,296.6294766807588,3.949690817818301,16.479415371153266,0.37195259,-6.55112593888889,-3.147013363065135,True,1.8989
mp-541428,Cs4 Mo4 P8 O32,48,Monoclinic,14,780.7899257063166,3.562618337233378,16.26645678554826,0.89687966,-7.698042139375,-2.517353575120074,False,2.4808
mp-1199248,Cs4 Mo8 P12 O52,76,Monoclinic,4,1179.7047006118257,3.5229071470995272,15.522430271208233,0.71383153,-7.8989736181578944,-2.4690161743991452,False,2.2729
mp-581922,Cs4 Mo12 Br12 Cl16,44,Trigonal,159,1456.1796814591387,3.659346639704556,33.09499276043497,0.51849811,-5.5635776402272725,-1.404492303377743,False,2.5467
mp-1213536,Cs4 Mo12 Cl28,44,Trigonal,159,1238.7769916764262,3.586533160861949,28.154022538100595,0.7739797700000001,-14.613906603181817,-1.305591730227273,True,2.587399999999999
mp-558321,Cs2 Mo8 P14 O56,80,Triclinic,2,1269.3860183788117,3.091051479222304,15.867325229735147,0.56424346,-7.9764347870000005,-2.457889766303879,False,2.5434
mp-554274,Cs4 Mo4 I4 O24,36,Orthorhombic,33,648.1603987618529,4.629362837598639,18.00445552116258,3.56145296,-6.414925906944444,-1.640991870795019,True,2.6158
mp-1200253,Cs2 Mo2 N6 O22,32,Monoclinic,5,486.9084106575077,3.047910985509031,15.215887833047116,-1.66698955,-6.945423314375,-1.245671316228448,False,2.7732
mp-18527,Cs4 Mo4 P4 O24,36,Orthorhombic,70,594.4919769923581,3.9754664503726813,16.513666027565503,0.35415809,-7.587748265277778,-2.3814296835331152,False,2.8603
mp-3288,Cs3 N3 O6,12,Trigonal,152,239.55683033209817,3.72047782558346,19.963069194341514,0.32511465,-6.053319932499999,-1.267775601163792,False,2.3632
mp-505396,Cs4 Na12 Pb4 O16,36,Triclinic,2,682.0931512349553,4.606732281387911,18.947031978748758,2.37651656,-4.751224906388888,-1.591488129032566,True,1.5078
mp-581834,Cs8 Na40 W16 N48,112,Monoclinic,14,1930.1487948114268,4.814844482651355,17.233471382244883,2.82392641,-6.563952352321428,-0.595201752789409,False,1.8273000000000001
mp-2741979,Cs4 Na4 F12,20,Orthorhombic,62,360.16317123292214,3.9261413209500162,18.008158561646106,-1.4376248,-9.950414526,-2.340271042,True,0.9959000000000001
mp-998609,Cs4 Na4 F12,20,Orthorhombic,62,395.24948128261053,3.57761762083351,19.762474064130526,-2.01888667,-4.001478365,-2.403227270206896,False,0.029499999999999003
mp-29566,Cs8 Na8 Ge16,32,Monoclinic,14,1032.1042613446507,3.876455039607924,32.253258167020334,2.19763551,-3.0592558353125,-0.18531732057112102,False,1.1046
mp-6973,Cs2 Na2 S2,6,Tetragonal,129,181.43955927976768,3.440432631947764,30.239926546627945,1.30429267,-13.509852243333334,-1.273974692604168,False,2.413399999999999
mp-8658,Cs2 Na2 Se2,6,Tetragonal,129,202.26983185938096,3.856099213406121,33.71163864323016,0.97207553,-15.641833736666667,-1.313769136354165,False,2.027
mp-5339,Cs2 Na2 Te2,6,Tetragonal,129,243.46072370294152,3.867193712429682,40.576787283823585,1.39847709,-19.259934259999998,-1.229981633333333,False,1.9696
mp-505321,Cs4 Nb4 Cu8 Te16,32,Orthorhombic,33,1063.3091961050313,5.392786009813936,33.22841237828223,3.84915771,-4.675581765625,-0.702966825165229,False,1.1447
mp-555286,Cs1 Nb1 P2 O8,12,Monoclinic,12,201.39660798498394,3.427945927671024,16.783050665415328,-0.41063958,-7.966510861666666,-2.847851053245074,False,2.5389
mp-562854,Cs2 Nb4 Bi2 O14,22,Orthorhombic,26,357.82357403208874,5.937213972103488,16.26470791054949,1.71363336,-8.086956110000001,-2.665469837695925,False,2.4818
mp-641699,Cs4 Nb8 P4 S40,56,Monoclinic,7,1471.426968547698,3.025985140781723,26.27548158120889,2.78707033,-5.9409144014285715,-1.09022462637843,False,1.518399999999999
mp-1195822,Cs4 Nb8 P4 Se40,56,Monoclinic,7,1678.704608986934,4.507854022195043,29.976868017623822,2.4863116,-5.318721134285714,-0.926922851981108,False,0.8597999999999991
mp-573274,Cs4 Nb12 S4 Br28,48,Monoclinic,14,1385.8257027533934,4.807386361871767,28.871368807362362,2.29894339,-5.391610064999999,-1.490870231429597,False,0.038000000000000006
mp-569853,Cs2 Nb8 Br22,32,Orthorhombic,51,915.3951926596221,5.019284035845955,28.60609977061319,2.62074739,-5.102271355312499,-1.394795754353447,False,0.28699999999999903
mp-582146,Cs2 Nb8 Cl22,32,Orthorhombic,51,789.5337937710856,3.762664518423764,24.672931055346425,3.18647279,-13.539058882500001,-1.556460165468748,False,0.51
mp-1213080,Cs2 Nb2 Cl12,16,Monoclinic,15,482.73605656573494,3.016952671486727,30.171003535358434,1.0669083,-12.50426881,-1.659623680624999,True,2.332099999999999
mp-1030663,Cs16 Nb16 N32,64,Orthorhombic,61,1402.181682736924,4.809496159853442,21.909088792764436,2.08314424,-7.8402966671875,-0.9188371421012941,False,1.636499999999999
mp-1196826,Cs4 Nb4 S8 O36,52,Orthorhombic,62,903.464297391815,3.190246253985458,17.374313411381056,1.97105878,-7.185375376153847,-2.276325315358091,False,2.7579000000000002
mp-1194659,Cs4 Nb4 V8 O32,48,Monoclinic,11,878.6317082190396,3.444861336788951,18.304827254563325,-1.04025888,-8.336302376458333,-2.606237143929598,False,2.4885
mp-1225952,Cs2 Nb2 W2 O12,18,Orthorhombic,74,294.7988284137535,5.696417774420121,16.37771268965297,0.64005316,-8.591782770000002,-2.630096228850576,False,2.8953
mp-1190370,Cs2 Nd4 Ag6 Te10,22,Orthorhombic,63,731.8648325063333,6.275791785733889,33.26658329574242,3.66206056,-4.252179837272727,-1.09857847936259,False,1.0241
mp-862772,Cs2 Nd4 Cu2 Se8,16,Orthorhombic,63,472.3314702655845,5.630448128753898,29.520716891599033,2.8747521,-5.292894383125,-1.727003756128771,False,0.8344
mp-1103178,Cs2 Nd2 Cd2 Te6,12,Orthorhombic,63,487.6779726491035,5.25974702458608,40.63983105409196,2.38824541,-3.983225065,-1.305549586192528,True,1.5147
mp-510065,Cs2 Nd2 Hg2 Se6,12,Orthorhombic,63,411.838592611369,5.762695472659977,34.319882717614085,1.41706696,-4.211289839166667,-1.465701260281071,True,1.353899999999999
mp-553308,Cs2 Nd2 O4,8,Hexagonal,194,161.9293496126839,6.3404124057903815,20.241168701585487,2.06084953,-6.739574861249999,-2.846563108038792,False,2.9366000000000003
mp-1095172,Cs2 Nd2 S4,8,Hexagonal,194,250.9845979483906,4.515851140365055,31.373074743548823,1.937653469999999,-19.7382919825,-2.089176945781251,False,2.2185
mp-11742,Cs1 Nd1 Te2,4,Trigonal,166,169.1333355462815,5.226549444139719,42.283333886570375,2.66591747,-28.020524755,-1.6802971043750001,False,1.291999999999999
mp-12342,Cs2 Nd2 Zn2 Te6,12,Orthorhombic,63,472.64814177987773,5.096741610173374,39.38734514832314,2.50981049,-4.042052133333333,-1.314421084525861,True,1.3651
mp-22950,Cs2 Ni2 Cl6,10,Hexagonal,194,267.3322484164909,3.70154110632652,26.733224841649093,1.51774018,-12.641281607,-1.5317842365,False,0.8049000000000001
mp-1102595,Cs2 Np2 Ag2 S6,12,Orthorhombic,63,340.14196352282414,5.604115173632386,28.34516362690201,4.0954575,-6.200126459166667,-1.347830853761973,False,0.07629999999999901
mp-1213571,Cs4 Np4 Mo4 O24,36,Monoclinic,14,709.2254768266984,5.261854655899866,19.70070768963051,2.28325192,-8.73487560611111,-2.69163411815613,False,0.33690000000000003
mp-1201281,Cs4 Np4 Mo4 O28,40,Orthorhombic,52,816.8220006306263,4.698835106459909,20.42055001576566,1.27356423,-8.435464359000001,-2.501750919340517,True,1.3526
mp-2037681,Cs2 O4,6,Orthorhombic,71,140.6944980519223,3.892546706799327,23.449083008653716,1.07996894,-4.611815541666666,-1.010515681551724,False,0.41429999999999906
mp-734596,Cs2 Os4 O18,24,Monoclinic,9,409.74420668839196,5.328065799023181,17.072675278682997,-0.48231784,-7.158651129583334,-1.500787673304599,False,0.8738999999999991
mp-561383,Cs4 Os4 N4 O12,24,Orthorhombic,62,534.1114476115797,4.789566696717669,22.25464365048249,-0.89130747,-7.203421095833334,-1.317170135775861,False,2.9029
mp-1201790,Cs4 P28,32,Orthorhombic,57,878.5763058071049,2.643944226993856,27.455509556472027,4.38233692,-11.2617148653125,-0.246341467291665,True,1.2774
mp-562569,Cs4 P4 Pb4 S16,28,Orthorhombic,62,806.7366713694838,4.11124125922633,28.812023977481566,2.35395651,-4.775584410357148,-0.9770792052568661,True,2.3363
mp-1193277,Cs4 P4 Pb4 Se16,28,Orthorhombic,62,923.1486983263379,4.942459182782202,32.96959636879778,2.04710985,-4.262721530357143,-0.831329519453289,True,1.5613000000000001
mp-504838,Cs2 P2 S6,10,Orthorhombic,71,315.3575746673914,2.7388807315107133,31.535757466739142,0.8520355,-12.475561895,-0.8324565832827361,False,1.9062000000000001
mp-1225967,Cs4 P4 Se24,32,Monoclinic,7,1040.204414421916,4.071602890343417,32.506387950684875,1.18860544,-15.43159129,-0.43410495279389805,False,1.6167
mp-1183920,Cs1 Pa1 O3,5,Cubic,221,86.93019019772653,7.86886217827183,17.386038039545305,3.47557985,-8.516854444,-3.457622890931035,False,2.972999999999999
mp-567681,Cs4 Pb4 Br12,20,Orthorhombic,62,769.2071757466882,5.006763123039218,38.460358787334414,0.17027543,-3.5406624405000002,-1.634369591431033,False,2.8808