material_id,composition,nsites,crystal_system,space_group,volume,density,density_atomic,efermi,energy_per_atom,formation_energy_per_atom,is_gap_direct,band_gap
mp-11739,K1 La1 Te2,4,Trigonal,166,157.26253223056813,4.574209595129334,39.31563305764203,3.05344747,-4.78778325,-1.699286096395833,False,1.701299999999999
mp-1104930,K2 La2 Ti2 O8,14,Tetragonal,129,203.79933701026056,4.723643949169763,14.557095500732897,3.45718023,-8.208230002142857,-3.386128164369048,False,2.3399
mp-28994,K2 Li4 As2,8,Orthorhombic,59,185.59503891257668,2.288704513727973,23.199379864072085,0.93729651,-2.986765713749999,-0.581931216604166,True,0.6878000000000001
mp-559106,K2 Li6 Pb2 O8,18,Triclinic,2,233.3726605412018,4.712084679195278,12.965147807844545,1.17055634,-5.218383340555555,-1.844757850249999,False,1.693099999999999
mp-23582,K1 Li6 Bi1 O6,14,Trigonal,166,148.11446344463306,4.324391693194456,10.579604531759504,1.0849377,-5.282538701428572,-1.985202468375,True,1.4216
mp-555206,K8 Li8 Cr8 O32,56,Orthorhombic,33,885.5048962951688,2.430813224899077,15.8125874338423,-1.40322275,-6.725144749107143,-2.084404166333332,False,2.8721
mp-753940,K1 Li1 Mn1 S2,5,Tetragonal,119,109.686705995288,2.499548090785788,21.9373411990576,2.36540622,-5.326415488,-1.2306100847028731,False,0.6361999999999991
mp-8756,K2 Li2 Se2,6,Tetragonal,129,146.04031586940903,2.8425879485670453,24.340052644901505,0.46906723,-3.542389261666667,-1.363654572642361,False,2.5249
mp-4495,K2 Li2 Te2,6,Tetragonal,129,180.18507341646608,3.200429821183268,30.030845569411014,1.40742506,-3.270399698333335,-1.209200204083335,True,2.4134
mp-1211625,K4 Li4 Yb4 F20,32,Monoclinic,14,412.8837222932999,5.052538153063795,12.902616321665622,-3.03159498,-11.4121264503125,-3.841565339739585,True,0.0234
mp-1223469,K1 Li1 Zn3 O4,9,Monoclinic,8,116.54421921087841,4.3636928033218645,12.949357690097601,2.23484176,-4.769940347777777,-1.813121743398147,True,1.643
mp-551092,K2 Li2 Zn2 O4,10,Monoclinic,12,133.94125970775025,3.556775769620358,13.394125970775026,0.52251233,-4.648744361,-1.809552719116666,True,2.258
mp-774907,K1 Li1 Zn1 S2,5,Tetragonal,119,105.644498076425,2.7597710406679132,21.128899615285,1.0428322,-3.83574446,-1.320393393116666,False,2.5442
mp-1223523,K1 Lu1 Nb6 Cl18,26,Trigonal,146,650.9179563414068,3.596139051495252,25.03530601313103,2.41210555,-5.730419755384616,-1.902163685535256,True,1.0824
mp-1007636,K1 Lu1 S2,4,Trigonal,166,98.26878640409265,4.70092468522912,24.567196601023163,1.76425765,-17.1994487025,-2.157413131510415,False,2.4307
mp-1019089,K2 Mg2 As2,6,Tetragonal,129,160.2895460635227,2.865987283319284,26.714924343920448,1.922067419999999,-3.139035448333333,-0.6617146915833331,False,1.1621
mp-1019105,K2 Mg2 Bi2,6,Tetragonal,129,202.44358977636247,4.468442546930827,33.74059829606041,2.38715292,-2.6685370133333333,-0.45124566408333305,True,0.385499999999999
mp-23737,K1 Mg1 H3,5,Cubic,221,63.4304022052392,1.738989885084084,12.686080441047839,0.115656799999999,-2.9351239380000003,-0.34565612720000005,False,2.458
mp-1018737,K2 Mg2 P2,6,Tetragonal,129,149.25533260165312,2.099982569603607,24.875888766942186,2.24438962,-3.35476738,-0.628996292297619,False,1.6589
mp-7089,K2 Mg2 Sb2,6,Tetragonal,129,191.6846050640215,3.208091680058315,31.947434177336916,2.64009536,-2.929808336666667,-0.632861344083333,False,1.267199999999999
mp-555354,K2 Mn2 Se4 O16,24,Triclinic,2,378.3460489484327,3.335170993016083,15.764418706184697,0.16299802,-6.2519197525,-1.512845084989044,False,0.037099999999999
mp-763541,K2 Mn4 O8,14,Monoclinic,11,188.7890468955709,3.746491815091009,13.484931921112207,1.95516146,-7.571980308571428,-1.9652311190160092,False,0.31959999999999905
mp-1016190,K4 Mn12 O24,40,Monoclinic,15,576.9404426000683,3.452767739364122,14.423511065001708,1.68076839,-7.795889015,-1.965370852104309,False,1.198599999999999
mp-557389,K2 Mn10 Se12 O36,60,Monoclinic,15,920.6828441222532,3.879669142020933,15.344714068704219,2.26225289,-6.8886379736666665,-1.655964202365588,True,0.44710000000000005
mp-1200457,K2 Mn12 As14 O48,76,Monoclinic,11,1043.726555696563,4.063860708996031,13.733244153902145,3.37784386,-7.375496299736842,-1.913775685982531,False,1.3939
mp-1205353,K2 Mn2 F6,10,Orthorhombic,74,145.3773548581438,3.450245699508706,14.53773548581438,0.73037579,-6.223091586999999,-3.016103159036205,False,2.4058
mp-558116,K4 Mn4 F16,24,Monoclinic,14,337.6040341264825,3.345237128457664,14.066834755270103,-1.555885379999999,-5.939839620833333,-2.948373868363506,False,2.1486
mp-1205906,K2 Mn2 I2 O12,18,Trigonal,149,279.1281086083277,3.770932492545123,15.507117144907093,0.50038834,-6.069747322777777,-1.4580624716867812,False,1.9674
mp-1029804,K16 Mn16 N32,64,Orthorhombic,61,998.0406370968172,3.249060001895016,15.59438495463777,2.93582903,-7.19517121828125,-0.45268609207650906,True,0.06420000000000001
mp-554900,K12 Mn12 O24,48,Monoclinic,11,709.7882964547293,3.538287961339087,14.787256176140195,1.22892932,-6.9933597272916685,-1.9460329710869262,False,1.882899999999999
mp-555605,K4 Mn4 P4 O16,28,Triclinic,2,442.179739511131,2.8391593129887003,15.792133553968965,1.9492656400000001,-7.6650374503571435,-2.593508513189127,True,1.3002
mp-1298569,K2 Mn2 Sn6 O16,26,Triclinic,1,344.39156342351777,5.575396927465809,13.245829362442992,4.47353054,-6.8426650703846175,-2.080681330398542,True,0.8738999999999991
mp-541350,K4 Mo4 P8 O32,48,Monoclinic,14,686.6462964702117,3.143648711307558,14.305131176462744,0.61914325,-7.719908899375,-2.520604322419642,False,2.4449
mp-1211413,K1 Mo2 P4 O14,21,Triclinic,2,295.3139591347202,3.2549354024977593,14.062569482605724,1.94160803,-7.9727054623809535,-2.555752218848639,False,1.1436
mp-531064,K8 Mo24 Br56,88,Orthorhombic,48,2918.7516251995726,4.033632984934998,33.167632104540594,3.09771838,-5.326148402840909,-1.223698784863636,False,2.3107
mp-556136,K4 Mo4 I4 O24,36,Monoclinic,14,593.5952211073197,4.005234234484638,16.48875614186999,0.56183938,-6.432275421111111,-1.633520034694444,True,2.9911000000000003
mp-29200,K4 N4 O8,16,Monoclinic,14,281.6828932181055,2.00676985388234,17.605180826131594,-0.99175183,-6.128853745,-1.287461375562499,False,2.5518
mp-5158,K4 N4 O12,20,Orthorhombic,62,306.24942598800067,2.1927984069410282,15.312471299400034,-1.25544897,-6.2848446935,-1.4221385969499991,False,2.9384
mp-559067,K2 Na4 Au2 O4,12,Orthorhombic,58,225.46424865334913,4.625842171150856,18.788687387779095,0.8716093300000001,-4.143796704166666,-1.313027489168102,False,2.0479
mp-1019888,K1 Na2 B1 N2,6,Tetragonal,139,94.30606544579979,2.181667813151634,15.717677574299964,1.63765743,-5.146985715,-0.6185259581958811,False,1.581799999999999
mp-8263,K2 Na4 B2 O6,14,Orthorhombic,59,184.14503124951625,2.5950203172466892,13.153216517822589,1.12999384,-5.876978065000001,-2.257251484167899,False,2.798499999999999
mp-545359,K1 Na2 Cu1 O2,6,Tetragonal,107,105.47669337065449,2.8435755621127363,17.57944889510908,1.4623188200000001,-4.303283638333333,-1.3349603116681021,False,1.5144000000000002
mp-17785,K4 Na8 Ga4 O12,28,Orthorhombic,62,403.29781660799904,3.340020325724922,14.40349345028568,0.52359417,-5.024765298928562,-1.926652396429793,True,2.5055
mp-15724,K1 Na2 Sb1,4,Cubic,225,114.33950763074155,3.003881322361405,28.584876907685388,2.22797509,-10.2940269125,-0.580791710937498,True,0.672099999999999
mp-1223632,K8 Na16 W8 N24,56,Orthorhombic,29,962.5845399182595,4.2911521875121394,17.18900964139749,1.6826615500000002,-6.565141902321429,-0.595459795894088,False,2.029499999999999
mp-1205067,K8 Na32 Fe8 O32,80,Orthorhombic,61,1159.6653183683243,2.874134164177733,14.495816479604054,0.85776401,-5.100370358500008,-1.624358551776732,True,2.0784
mp-14428,K8 Na32 Ga8 O32,80,Orthorhombic,61,1217.9434926425752,2.887977497406673,15.22429365803219,0.327046699999999,-4.735818146624999,-1.803998858651723,True,2.3967
mp-16921,K4 Na16 Ge4 As12,36,Orthorhombic,62,976.9323429304765,2.913111389204486,27.13700952584657,1.502521419999999,-3.183976664722222,-0.39157129919636,True,0.6988000000000001
mp-556521,K4 Na28 Pb8 O28,68,Monoclinic,14,1157.9732047490224,4.166773152213561,17.02901771689739,1.70263312,-4.664383699264706,-1.571181561141479,False,0.925199999999999
mp-559242,K4 Na4 Mn4 O8,20,Orthorhombic,66,327.2017276166455,3.02518808639771,16.360086380832275,2.29785671,-5.984614904,-1.678409343312068,False,0.274499999999999
mp-28383,K4 Na4 S4,12,Orthorhombic,62,298.2413766636039,2.0968901301187692,24.853448055300323,0.65054934,-7.158000004166666,-1.285518808020832,True,2.4851
mp-28595,K4 Na4 Se4,12,Orthorhombic,62,334.72895336122485,2.798871468464669,27.89407944676874,0.32915487,-3.230276840833335,-1.240609514491021,True,2.0175
mp-8755,K4 Na4 Te4,12,Orthorhombic,62,408.28612532332534,3.085918721905412,34.02384377694378,1.03597546,-12.879820547500001,-1.213264275416667,True,1.9491
mp-557183,K2 Na2 Zn2 O4,10,Monoclinic,15,157.3862898158647,3.365593308167173,15.73862898158647,0.68815353,-4.35286862,-1.6271173957258611,True,1.7792
mp-567177,K2 Nb2 Ag4 Se8,16,Orthorhombic,40,510.07341630102223,4.32056355803623,31.87958851881389,0.7160299,-4.7570131225,-0.894238618744791,False,1.458999999999999
mp-1106233,K2 Nb2 Cu4 S8,16,Orthorhombic,40,378.57391939483443,3.398125792060315,23.660869962177152,2.51727437,-5.580285210625,-1.082219414031248,False,1.7079
mp-6599,K2 Nb2 Cu4 Se8,16,Orthorhombic,40,429.16514166464947,4.4491256408113,26.82282135404059,1.9382176800000002,-5.1417053975,-0.9648636458281241,False,1.4228
mp-1223649,K4 Nb8 P8 S48,68,Orthorhombic,73,1748.3658814586313,2.551598882580447,25.711262962626932,2.65130545,-5.80410866117647,-0.9908591515609221,True,0.0013999999999990001
mp-1192824,K2 Nb4 Cl22,28,Triclinic,2,807.3124998105718,2.5295176494600673,28.832589278948994,-1.22421733,-4.806040959285714,-1.8297587733749991,True,2.1197
mp-542972,K4 Nb8 P4 S40,56,Orthorhombic,29,1442.871587334414,2.6540368625732462,25.765564059543106,2.66388477,-5.938557706607143,-1.071911349242346,False,1.4962
mp-1202434,K4 Nb12 Se8 O48,72,Orthorhombic,57,1085.1063115735167,4.08731250622745,15.070920994076621,2.75253316,-7.847464029722222,-2.41398403760764,False,2.3298
mp-1202170,K4 Nb12 Te8 O48,72,Orthorhombic,57,1109.6312803873006,4.579284713118945,15.411545560934732,3.77087982,-7.889900647499999,-2.495599053643518,False,2.4149000000000003
mp-27998,K2 Nb6 O16,24,Orthorhombic,63,369.6846837346525,4.004976877188869,15.403528488943854,-0.27757561000000003,-8.905206614166666,-2.986958873937498,False,2.4752
mp-1223401,K2 Nb8 As2 O26,38,Orthorhombic,36,571.5192064226403,4.030703966304419,15.039979116385272,2.58358036,-8.595934888157895,-2.778555652355265,False,2.4151
mp-2205912,K2 Nb2 Cl12,16,Orthorhombic,31,493.2075415469863,2.321235703280572,30.825471346686644,0.72998696,-10.056756331875,-1.598384835468749,True,2.3707000000000003
mp-675801,K2 Nb2 Cl12,16,Monoclinic,4,559.4151276594331,2.04651411440392,34.96344547871457,-2.03711175,-4.6829819475,-1.89249050215625,False,2.2072
mp-1029504,K16 Nb16 N32,64,Orthorhombic,61,1201.631883942806,3.538072206678848,18.775498186606345,1.10610156,-7.90944998046875,-0.93214241728125,True,2.0136
mp-7375,K1 Nb1 O3,5,Trigonal,160,66.42558683114697,4.499799378518349,13.285117366229395,1.18912488,-8.067439236000002,-2.852127680450001,False,2.2934
mp-11603,K2 Nd4 Cu2 S8,16,Orthorhombic,63,398.3728420150508,4.32993654146924,24.898302625940676,3.12262457,-5.7888467875,-1.873808096531248,False,0.9129
mp-669359,K4 Nd12 Te32,48,Monoclinic,14,1640.1591172656154,6.044684167079109,34.16998160970032,4.41405338,-26.139112809583334,-1.338272362604167,False,0.439899999999999
mp-861866,K2 Nd2 Ge2 S8,14,Monoclinic,4,379.50208716533194,3.362542925009716,27.107291940380854,1.7538336700000001,-5.408211560714285,-1.540213949249998,False,2.367099999999999
mp-1006885,K1 Nd1 S2,4,Trigonal,166,111.40649386181222,3.688600966860526,27.851623465453056,1.42509183,-15.0032191125,-2.12665134171875,False,2.2595
mp-11740,K1 Nd1 Te2,4,Trigonal,166,151.60938300775314,4.803220526207431,37.902345751938284,2.529942649999999,-23.25272294,-1.685042555312502,False,1.2648000000000001
mp-11010,K2 Nd2 Te8,12,Tetragonal,125,430.31454003633525,5.354143367442484,35.85954500302794,4.38862248,-23.9890245425,-1.138162849375002,False,0.15709999999999902
mp-1211538,K4 Nd4 Ti4 O16,28,Orthorhombic,57,399.9627583863219,4.902449128808791,14.284384228082926,4.1873499,-8.147123980357142,-3.349002095797618,False,2.360699999999999
mp-27366,K6 Ni6 Cl18,30,Hexagonal,185,715.0760800661986,2.844454364567921,23.835869335539954,1.44222778,-8.760471230666667,-1.469011672916667,False,0.702299999999999
mp-550959,K1 Ni1 I1 O6,9,Trigonal,149,133.5624281002173,3.987068432551869,14.840269788913032,0.5775035900000001,-5.300103723333333,-1.064183162472221,False,1.751799999999999
mp-662530,K4 Ni4 P4 S16,28,Tetragonal,136,775.3440536895229,2.201865449181975,27.690859060340102,1.84993698,-5.031156701428571,-0.905382673127549,False,0.9783000000000001
mp-1211682,K4 Np8 F36,48,Orthorhombic,62,684.7707630909633,6.63549409427526,14.26605756439507,3.06810919,-7.432435906666664,-3.744802534979164,False,0.28350000000000003
mp-16866,K2 Np2 N6 O22,32,Trigonal,167,498.5428640549668,3.291560290300665,15.579464501717712,0.71197913,-7.4672090121875,-1.6221119063125,False,0.09819999999999901
mp-7984,K1 Os1 F6,8,Trigonal,148,115.61461347852912,4.930986908783361,14.45182668481614,-1.09493261,-5.45272715625,-2.472495730906249,True,1.3498
mp-7441,K8 P8,16,Orthorhombic,19,447.6799113986769,2.079296273351812,27.979994462417306,2.39110254,-8.04675768125,-0.536587557113094,True,1.034999999999999
mp-1211471,K2 P30,32,Triclinic,2,769.1628545693718,2.174887612492646,24.03633920529287,4.6180045100000005,-8.9389266340625,-0.12333859552455201,False,1.5227
mp-561218,K4 P8 Au20 S32,64,Monoclinic,14,1748.4041547598354,5.099748651952928,27.318814918122428,2.33332287,-4.40089882625,-0.5609861191584811,False,1.6577000000000002
mp-862850,K2 P2 Au2 Se6,12,Monoclinic,12,345.26148025520854,4.847204921583292,28.77179002126738,1.6061454,-4.084208860833333,-0.6994655806540171,False,0.993699999999999
mp-638150,K4 P4 Pb4 S16,28,Orthorhombic,62,754.06652371792,3.57210835134094,26.930947275639998,2.40372437,-4.784940724999999,-0.9545223552704061,False,2.316599999999999
mp-866637,K4 P4 Pd4 S16,28,Tetragonal,136,824.4380049058306,2.4552614099138133,29.44421446092252,1.03246303,-4.96593157107143,-0.9259082384846921,False,1.477
mp-8267,K2 P2 S6,10,Orthorhombic,71,264.3180621637443,2.0890963688192112,26.43180621637443,1.29029314,-4.749104455999995,-0.9567200658785651,False,1.7149
mp-569702,K24 P24 Se72,120,Trigonal,144,3731.404010154259,3.278374933214612,31.09503341795216,1.15369372,-4.206666757833333,-0.799751221618154,True,1.4182000000000001
mp-18625,K4 P4 Se24,32,Orthorhombic,29,944.170638694595,3.825810071235391,29.505332459206095,1.26339132,-4.122011197812499,-0.681722183556918,True,1.9067
mp-21526,K16 Pb16,32,Tetragonal,142,1281.2615838509246,5.107315531405211,40.03942449534139,2.70175683,-31.5138882703125,-0.362189247187497,False,0.5708000000000001
mp-28574,K8 Pb8 O16,32,Triclinic,2,566.1103345075451,6.530503734025406,17.690947953360784,,-5.253928936874999,-1.5689442361874981,False,1.4532
mp-1095520,K2 Pd4 O6,12,Trigonal,166,199.44843139644027,4.994336353132734,16.62070261637002,1.6859818400000002,-5.524383340833329,-1.135213947874995,False,0.26480000000000004
mp-1211534,K4 Pr4 P8 Se24,40,Monoclinic,14,1121.1403662539526,4.240219047825452,28.028509156348814,4.0207386,-4.86467293175,-1.091347221976488,True,2.0113
mp-567710,K4 Pr12 Te32,48,Monoclinic,14,1663.4728391264073,5.920025740580766,34.65568414846682,4.34243341,-26.142215087083333,-1.344887793645834,False,0.4675
mp-1223605,K2 Pr10 C4 Cl20,36,Hexagonal,173,977.8711662976955,3.811211528197319,27.163087952713763,2.835175109999999,-5.652146114444445,-2.204841336699074,False,2.1273
mp-2911857,K2 Pr10 C4 Cl20,36,Hexagonal,173,945.476137342491,3.9417957946150732,26.263226037291417,3.24771651,-15.16002670222222,-2.134339821226848,False,2.2493
mp-568343,K4 Pr24 Os4 I40,72,Orthorhombic,62,3144.9170955899626,4.950213605240145,43.67940410541615,3.5580145400000003,-4.57074162513889,-1.438980955541667,True,0.002499999999999
mp-12012,K2 Pr2 Ge2 Se8,14,Monoclinic,4,437.57656534169297,4.314642069787594,31.25546895297807,1.17926539,-4.9126264,-1.407838550470237,False,1.6332
mp-15782,K1 Pr1 S2,4,Trigonal,166,113.40497648238076,3.574775068177798,28.35124412059519,1.38579779,-14.98434856,-2.111293942760417,False,2.2688
mp-13538,K2 Pr2 Si2 Se8,14,Monoclinic,4,425.7589780218607,4.08685987075398,30.41135557299005,1.501272629999999,-5.128918387142856,-1.509517655470237,False,2.1773
mp-5273,K1 Pr1 Te2,4,Trigonal,166,153.50646455574142,4.707791845009544,38.376616138935354,2.46391478,-23.248327845,-1.684160613854167,False,1.279999999999999
mp-11132,K2 Pr2 Te8,12,Tetragonal,125,432.57183019316597,5.300604300914084,36.047652516097166,4.40613219,-23.989072722499998,-1.140553131736112,False,0.176299999999999
mp-30533,K2 Pt4 S6,12,Trigonal,166,279.0631147628836,6.253417026308305,23.25525956357363,2.70490192,-22.984929023333333,-0.8018131928645811,True,1.273899999999999
mp-14796,K2 Pt4 Se6,12,Trigonal,166,310.59163348608075,7.12293465735365,25.88263612384006,2.36525427,-4.836509836666667,-0.8762813707135411,True,0.9439000000000001
mp-1211482,K4 Pu8 F36,48,Orthorhombic,62,675.9499466440517,6.859653684673981,14.08229055508441,2.13154798,-7.614284897916664,-3.6282927262291613,True,0.308899999999999
mp-561433,K2 Pu2 C2 O10,16,Hexagonal,194,241.01784727463257,5.168730649280994,15.063615454664536,3.33353649,-8.8609316725,-2.631210082312497,False,0.434299999999999
mp-510007,K4 Pu4 P8 S28,44,Monoclinic,14,1106.180374313375,3.419617229422965,25.140463052576706,4.02770455,-6.1321976025,-1.071400672753244,False,0.006600000000000001
mp-1206427,K1 Rb2 Cu1 F6,10,Cubic,225,176.79329320108815,3.64027189286087,17.679329320108813,-1.40625526,-4.431940112,-2.5644642332250003,False,0.8802000000000001
mp-1205717,K1 Rb2 Mn1 F6,10,Tetragonal,139,185.20324857103802,3.397790348606249,18.5203248571038,-1.06311945,-5.345922172,-2.972165431018103,False,1.704699999999999
mp-14036,K1 Rb2 Rh1 F6,10,Cubic,225,187.48966324911234,3.781187886268344,18.748966324911233,-0.02191313,-4.81932312,-2.625337121225,True,2.1662
mp-8013,K1 Ru1 F6,8,Trigonal,166,118.13391591913403,3.572559828098121,14.766739489891753,-1.89687107,-5.17410361125,-2.437992797156249,True,1.1302
mp-1287,K6 S6,12,Hexagonal,189,366.8753970696398,1.932581590949447,30.572949755803318,0.84383388,-8.125630696666667,-1.098999187447916,False,1.469
mp-1196514,K8 S24,32,Monoclinic,14,903.0720894865419,1.990182734819924,28.221002796454435,1.29984238,-8.14850550625,-0.617690210546874,False,1.8888999999999991
mp-1536,K8 Sb8,16,Monoclinic,14,618.1228513850983,3.457066707542885,38.632678211568646,2.43856309,-16.43342724125,-0.571137408125,False,0.8246000000000001
mp-554155,K1 Sb1 P2 O8,12,Trigonal,148,175.79638916325638,3.313599373274487,14.649699096938031,0.9463665,-7.096495520833333,-2.456911683044642,False,2.955899999999999
mp-556609,K2 Sb2 P4 S12,20,Monoclinic,4,527.1175663596453,2.615920735871572,26.355878317982263,2.14741628,-4.866345123,-0.7741975811535701,True,2.2731
mp-7123,K2 Sb2 P4 Se12,20,Monoclinic,4,598.3770647382606,3.866039764463122,29.91885323691303,1.78876371,-4.3486507115,-0.6419720235598211,False,1.8059
mp-29055,K2 Sb4,6,Monoclinic,12,216.3583998787304,4.338160462908972,36.05973331312173,3.85547746,-19.535252163333332,-0.39162036458333205,False,0.21530000000000002
mp-556756,K4 Sb8 P4 O32,48,Monoclinic,15,655.1720459402287,4.4768265337793505,13.649417623754765,2.06908172,-6.75116082875,-2.218783014741071,False,2.3727
mp-757115,K2 Sb10 O26,38,Orthorhombic,40,518.8119112221283,5.47882414123413,13.65294503216127,3.67796576,-6.421229055,-1.889657003013157,True,1.047899999999999
mp-15559,K4 Sb20 S32,56,Monoclinic,7,1511.7222250925602,3.973803903309034,26.995039733795718,3.5186090500000002,-14.662209707857143,-0.460078619017855,True,1.591599999999999