material_id,composition,nsites,crystal_system,space_group,volume,density,density_atomic,efermi,energy_per_atom,formation_energy_per_atom,is_gap_direct,band_gap
mp-849323,V8 S16 O64,88,Orthorhombic,61,1082.8112848742533,2.982028405338717,12.304673691752878,0.71386679,-7.0966124825,-1.919856732954545,False,1.3168
mp-557295,V8 Se16 O48,72,Tetragonal,103,984.8917052379992,4.111952207694192,13.679051461638878,2.31779324,-6.701959699166674,-1.617126915243063,True,2.051
mp-770389,V8 S12 O48,68,Monoclinic,14,883.2371935115485,2.933426295442554,12.988782257522772,1.17921188,-7.379349703676471,-2.087677768235294,False,1.9278
mp-19452,V2 Cd1 P4 O14,21,Triclinic,2,263.359281753179,3.544674492867896,12.54091817872281,2.23592192,-7.842735266190477,-2.60172714707483,False,1.980199999999999
mp-18740,V2 Cd2 O7,11,Monoclinic,12,156.1095265204487,4.666466122765736,14.191775138222608,-0.20574979000000002,-7.051502239090909,-2.076633188636363,False,2.5598
mp-559685,V8 Cd16 Te12 O60,96,Orthorhombic,19,1415.6858794497912,5.509699415436565,14.746727910935325,2.358307,-6.184712954270833,-1.782330218645833,True,1.8537
mp-1217403,V4 Cd10 P16 O56,86,Orthorhombic,20,1106.2630688838333,4.081947214568742,12.863524056788759,1.69899443,-7.232593953953489,-2.468999548538206,True,2.1237
mp-540685,V2 Cd1 O6,9,Monoclinic,12,107.27274426030148,4.803170970816857,11.919193806700164,1.02080039,-7.604842957777777,-2.180888695555554,False,2.2611
mp-21665,V8 Cd4 P8 O36,56,Orthorhombic,62,694.802044398194,4.017365848155961,12.407179364253464,3.26586717,-7.872795388214286,-2.552051214948979,False,1.480799999999999
mp-18729,V4 Co2 P4 O20,30,Monoclinic,14,355.3368177827339,3.5773616109255792,11.844560592757796,3.39469044,-8.183428283666666,-2.475975886285714,False,0.083499999999999
mp-2234110,V2 Cu1 O6,9,Triclinic,2,115.40065872957562,3.761738403233878,12.822295414397292,1.1243986,-7.769822293333334,-1.9970684222222221,False,0.523699999999999
mp-558123,V8 Ge4 O16 F8,36,Orthorhombic,62,432.7817463415937,4.243875438865562,12.02171517615538,2.5396924,-7.789612247499999,-2.632902384722221,False,1.876599999999999
mp-554784,V4 Ni2 P4 O20,30,Monoclinic,14,352.0807515308878,3.608183371086705,11.736025051029594,2.48556761,-8.085132185333334,-2.467898457285715,False,1.569799999999999
mp-28162,V6 Ni3 O18,27,Triclinic,2,289.30911132681416,4.41793024636892,10.715152271363488,1.80809144,-8.074746667222223,-2.115222795000001,False,2.1245
mp-25279,V4 O10,14,Orthorhombic,59,175.71849611799263,3.437530505956599,12.551321151285189,-0.53606004,-8.418681412142858,-2.2890218171428582,False,2.161
mp-1648259,V6 O3 F15,24,Trigonal,145,297.3962643381258,3.565810937481338,12.391511014088573,1.21502093,-7.132360180416668,-3.046730802916667,False,1.3457
mp-648414,V16 P8 S80,104,Monoclinic,14,2399.0258220016763,2.511238314692027,23.06755598078535,3.7493496200000003,-5.8499917774038455,-0.852539366607142,True,1.1465
mp-28207,V8 S8 O44,60,Monoclinic,14,813.3702405461183,2.792897796929049,13.556170675768639,-0.90830281,-7.392509779833333,-2.001036291166666,True,2.3616
mp-972384,V4 Se4 O22,30,Monoclinic,15,387.42486544588644,3.735727940181562,12.914162181529548,-0.02918,-6.881702452333333,-1.575888708979166,True,2.1812
mp-1194518,V8 Se8 O36,52,Monoclinic,14,697.1253448831092,3.84735224286961,13.406256632367484,-0.14154596,-7.14384602846154,-1.782978017668271,True,2.259
mp-29173,V8 Se12 O44,64,Monoclinic,14,877.9795561350725,3.8942734190538433,13.718430564610507,0.30597816,-6.858528091406249,-1.665833239658202,False,2.1989
mp-28256,V4 Se18,22,Monoclinic,15,571.9504613813261,4.717982675466317,25.997748244605734,2.35642108,-14.729709210454546,-0.45850979786931906,False,0.722
mp-772047,V8 Si4 O16,28,Orthorhombic,62,310.5400070708814,4.14875094109887,11.090714538245765,5.12644975,-8.836956966785715,-2.639103511071429,True,1.8974000000000002
mp-773455,V8 Sn4 O28,40,Cubic,205,679.7789594889717,3.249742804212661,16.994473987224293,-0.15341079999999901,-7.940311198750001,-2.259000095750001,True,2.6767000000000003
mp-17458,V4 Zn4 O14,22,Monoclinic,15,291.64928912265873,3.9251424493702802,13.256785869211761,-0.30502074,-7.199875484545455,-2.170509448636363,False,2.5529
mp-554700,V8 Zn12 Te4 O40,64,Monoclinic,14,919.2470212035054,4.232091488055301,14.363234706304771,0.46870204,-6.67069716015625,-2.010074728072917,True,2.8675
mp-1048867,V12 Zn6 O24,42,Trigonal,156,475.3744004543258,4.8475317492640855,11.318438106055376,4.75457838,-7.9438096866666665,-2.341038290952379,False,1.3106
mp-1195122,V12 Sb8 Cl96,116,Tetragonal,135,3614.394916846334,2.292003801914564,31.15857686936495,-0.015915330000000002,-4.156479819655172,-1.402178168275862,True,0.0264
mp-1100976,V6 Ag2 O16,24,Monoclinic,11,297.5290154136651,4.338611760384768,12.397042308902712,1.9933813999999992,-7.8805797025,-2.074051041805555,False,1.162
mp-1204387,V6 As4 H8 O26,44,Triclinic,2,495.5133886777586,3.449616612636108,11.261667924494514,1.0981065,-7.090738578636365,-1.8863693925000011,False,1.4995
mp-1216514,V4 Cd3 P6 O24,37,Triclinic,1,471.0922704414106,3.9155215041385523,12.73222352544353,1.86283135,-7.691361533783785,-2.54380585480695,False,2.0024
mp-1200219,V16 Cr8 O52,76,Monoclinic,14,1176.326960762548,2.91219606922689,15.477986325823,1.51868619,-8.675588550921054,-2.361630009605264,False,2.3584
mp-558525,V16 Fe8 O52,76,Monoclinic,14,1113.1772620538131,3.123334315462979,14.647069237550173,-1.08846359,-8.372212518421051,-2.182783057105263,False,2.3115
mp-755181,V4 O5 F7,16,Triclinic,1,195.07178634329438,3.54757956106518,12.191986646455899,-0.42342444,-7.417511557500026,-2.762986811875025,False,1.5045000000000002
mp-559911,V8 S18 Br8,34,Tetragonal,129,868.9096494825084,3.103436416186661,25.556166161250246,2.53485183,-5.846914895588235,-1.133465099852939,False,0.691499999999999
mp-19478,V4 Ag8 P8 O32,52,Monoclinic,14,688.9957096775776,4.401980297509219,13.249917493799568,1.69924911,-7.13908833826923,-2.124902452316849,False,2.038
mp-18889,V2 Ag6 O8,16,Monoclinic,15,230.91046594625075,6.3073706362951825,14.431904121640672,1.43985355,-5.917620826249999,-1.242050435624999,False,0.8996000000000001
mp-559736,V4 Ag4 O12,20,Monoclinic,8,248.92808517080482,5.51826198310841,12.446404258540241,1.5719148600000001,-7.1091017825,-1.754956429833332,False,1.628299999999999
mp-1194388,V4 Ag4 O4 F16,28,Monoclinic,14,413.2132361127612,4.031503990835478,14.757615575455757,-1.05237628,-5.862105089642857,-2.357788767738095,False,1.9517000000000002
mp-1201897,V4 Ag4 P8 O28,44,Monoclinic,14,551.686818396853,4.006254109800491,12.53833678174666,4.28015266,-7.6189903663636365,-2.4013978359956702,False,2.0397
mp-557135,V4 Ag4 Se4 O20,32,Orthorhombic,57,432.1314761943449,4.884291457419805,13.504108631073278,0.97989421,-6.566524234062499,-1.546204202688801,False,0.9513
mp-1072660,V2 As4,6,Monoclinic,12,96.19612354808386,6.931897586474049,16.032687258013976,6.61455886,-14.932099456666668,-0.43055355500000003,True,0.003699999999999
mp-510763,V4 As4 O20,28,Orthorhombic,62,359.9828494900298,3.798389159799684,12.856530338929636,0.04456704,-7.4453244775,-1.946205387857143,False,2.1315
mp-18946,V2 B2 O6,10,Trigonal,167,89.69635938619571,4.063605840500683,8.969635938619572,3.48741764,-8.848075437,-2.726639265833333,False,1.874699999999999
mp-754594,V1 B1 O4,6,Tetragonal,82,84.61988903978136,2.467658088994774,14.10331483996356,-1.3608992500000001,-8.441007716666666,-2.5151507398611113,True,2.6245000000000003
mp-971787,V1 Br2,3,Trigonal,164,81.19421374748661,4.310131989266903,27.06473791582887,2.46396163,-5.328173076666668,-1.208906696666668,False,1.1332
mp-27713,V1 Br2 O1,4,Orthorhombic,71,86.84778797048746,4.335463407387269,21.711946992621865,0.22489562000000002,-5.93408576,-1.6076457237500001,False,0.41539999999999905
mp-2757308,V2 Br6,8,Orthorhombic,40,287.6967489723293,3.355209909865499,35.962093621541165,-0.43671799,-14.50569310875,-1.039139354375001,False,0.6834
mp-27841,V2 Br2 O2,6,Orthorhombic,59,112.71431824743266,4.326720810140275,18.785719707905443,1.21623024,-7.211460181666666,-1.988522311666666,False,1.491099999999999
mp-22877,V1 Cl2,3,Trigonal,164,69.84758904925907,2.896771909691129,23.282529683086356,3.35516193,-10.407318866666666,-1.609167691666666,False,1.255999999999999
mp-1101909,V2 Cl10,12,Triclinic,2,302.6127924111765,2.504492989094516,25.217732700931375,-0.88015578,-8.560003154166667,-1.084708117916666,False,1.0398
mp-23061,V2 Cl2 O2,6,Orthorhombic,59,101.8269703775471,3.339568495480353,16.971161729591184,1.16428946,-7.488242895833334,-2.194772937500001,False,1.674
mp-1216363,V1 Cu3 Se2 S2,8,Orthorhombic,35,167.31877181192775,4.601246404340043,20.91484647649097,3.32402439,-5.37187984375,-0.7906213224609371,False,0.891
mp-3762,V1 Cu3 S4,8,Cubic,215,154.84416641947865,3.966135452969545,19.35552080243483,3.53810757,-5.59767063625,-0.8558000925,False,1.0358
mp-21855,V1 Cu3 Se4,8,Cubic,215,173.29038260089234,5.341420812523915,21.661297825111543,2.79078136,-13.5564656925,-0.5719401107812501,False,0.8164
mp-991652,V1 Cu3 Te4,8,Cubic,215,204.87959917253636,6.094756833162131,25.609949896567045,4.82548363,-4.697677506250001,-0.45333379958333303,False,0.5741
mp-559931,V2 F6,8,Trigonal,167,99.16001073786146,3.61502830984717,12.395001342232682,-0.39344641,-9.10544294375,-3.238528048750001,True,1.6025
mp-554799,V2 F8,10,Monoclinic,14,125.01803040902442,3.372005030603369,12.501803040902441,-2.43112952,-8.356199807,-3.037462301,False,2.2417
mp-1207977,V4 Fe8 B4 O20,36,Orthorhombic,55,374.89487694029293,4.490284788144449,10.413746581674804,3.4699718600000002,-8.599935727222224,-2.217364028796297,False,1.645999999999999
mp-567636,V1 Fe1 Sb1,3,Cubic,216,47.62263842384987,7.969117301040473,15.874212807949958,7.5395164999999995,-7.502861936666666,-0.275219096666666,False,0.3487
mp-23749,V2 H24 Cl6 O12,44,Monoclinic,14,499.0003286020699,1.766307786188143,11.340916559137952,-0.89545484,-5.234808737272727,-1.3684778579545451,False,2.2597
mp-1018138,V1 I2,3,Trigonal,164,104.47009083830956,4.84397024184427,34.82336361276985,3.96903884,-4.7851471,-0.7411700000000001,False,1.037
mp-1191502,V2 In2 Se4 O16,24,Monoclinic,6,358.67269984246695,4.182216740076696,14.944695826769456,1.32483864,-6.578354140416667,-1.71013823969618,False,2.1645
mp-22443,V2 In2 O8,12,Orthorhombic,63,163.53157048743634,4.666018179138492,13.627630873953029,1.32522151,-7.4886132,-2.216125894444445,False,2.9684
mp-541404,V4 O8,12,Monoclinic,12,135.43671915122044,4.067600255193656,11.286393262601704,2.16139927,-8.849077536666668,-2.522468176666668,False,0.7584000000000001
mp-764900,V6 O6 F6,18,Monoclinic,4,196.95752773759378,4.347299804964311,10.942084874310765,2.84410299,-8.1676143975,-2.852374580833333,False,1.344799999999999
mp-695981,V4 P4 H16 O24,48,Monoclinic,14,470.69542375607324,2.567470554363907,9.80615466158486,1.1847275,-6.8076781308333345,-1.993693849136904,True,1.9898000000000002
mp-26728,V2 P4 O14,20,Triclinic,2,250.06713791786447,2.986638219213912,12.503356895893223,0.93001049,-8.0818820665,-2.626824050928571,False,1.3194
mp-27523,V2 P2 Cl18,22,Orthorhombic,67,612.5102222548071,2.174211277663543,27.84137373885487,0.92950281,-8.117020799545456,-0.9839660614069261,False,0.12379999999999901
mp-1101197,V4 P4 H4 O20,32,Triclinic,2,336.7761712674212,3.213236365758687,10.524255352106913,1.145048759999999,-7.694896855312555,-2.365602972924161,False,1.4516
mp-18835,V4 P4 O16,24,Orthorhombic,63,257.9017588726252,3.757927184825147,10.745906619692716,3.12442543,-8.415898611666668,-2.700694675773809,False,1.834699999999999
mp-1104878,V2 P2 O8 F2,14,Monoclinic,15,171.68346134557714,3.190075459112797,12.263104381826938,0.7656978,-7.874905545714286,-2.702751832806124,False,1.5351
mp-763482,V2 P2 O10,14,Tetragonal,85,156.48622675010432,3.436233871776135,11.177587625007451,0.84520043,-8.107373217142854,-2.5017754142346913,False,2.270299999999999
mp-541155,V4 S16,20,Monoclinic,15,446.1816509535987,2.667712496982679,22.309082547679935,3.07144873,-6.0777620415,-0.9502931734999991,False,0.9239
mp-22092,V4 S4 O20,28,Orthorhombic,62,326.40975909201705,3.316980233623815,11.657491396143467,1.522546419999999,-7.521166373214284,-2.09801342142857,False,1.5119999999999991
mp-1216305,V2 Sb2 Se8 O24,36,Monoclinic,14,525.778221151774,4.298594905037259,14.604950587549277,1.85432014,-6.350314581944445,-1.5407542885763892,False,1.5958
mp-29146,V4 Sb4 O16,24,Tetragonal,109,264.57220185605274,5.94239454971778,11.023841744002198,6.2679598,-7.735923113333325,-2.235131224999993,False,0.5192999999999991
mp-29759,V4 Xe8 F68,80,Monoclinic,14,1341.1164334324685,3.15239953232343,16.763955417905855,-4.83024392,-3.48542190975,-1.4008346705,True,2.4443
mp-1029262,V2 Zn4 N6,12,Orthorhombic,36,138.4008410818494,5.36983395770496,11.53340342348745,2.67297547,-6.681273994166666,-0.5782362400000001,False,1.1715
mp-556959,V4 Zn4 Se8 O28,44,Monoclinic,14,655.1468548617518,3.916131331479169,14.889701246857994,1.12739701,-6.423269857954545,-1.69861534247159,False,2.0909