material_id,composition,nsites,crystal_system,space_group,volume,density,density_atomic,efermi,energy_per_atom,formation_energy_per_atom,is_gap_direct,band_gap
mp-1197456,Cs8 U8 Te48,64,Orthorhombic,62,2488.3249158415124,6.067566808348292,38.88007681002363,4.66654879,-4.7432470753125,-0.8608442077693941,False,0.042300000000000004
mp-562513,Cs4 U4 V4 O24,36,Monoclinic,14,680.1870050221011,5.057121738840128,18.89408347283614,0.71220262,-8.673560177222221,-3.010109101628352,False,1.9460000000000002
mp-1200557,Cs4 V4 N8 O32,48,Orthorhombic,19,842.1066976693083,2.680626683021438,17.543889534777257,0.25189572,-7.011453705,-1.490443107471263,True,1.7603
mp-572728,Cs2 V4 I6 O26,38,Orthorhombic,46,615.977733462926,4.439913933935637,16.20994035428753,1.59874351,-6.1325446705263165,-1.502475164192378,True,1.829699999999999
mp-504996,Cs2 V4 P10 O32,48,Monoclinic,7,678.3268903976644,3.16108112775943,14.131810216618009,2.06255635,-7.924793926875,-2.70310503449456,False,0.0091
mp-1196047,Cs4 V8 Sb4 O32,48,Monoclinic,14,847.4342486443637,3.797834060825847,17.65488018009091,-0.22718276,-7.482809274375,-2.250436025179598,False,2.7044
mp-18545,Cs2 V6 Se4 O24,36,Hexagonal,173,550.5519547634085,3.8343688104228812,15.293109854539125,0.5045906,-7.240607193611112,-1.989104371630149,False,2.3398
mp-651814,Cs2 V6 O16,24,Monoclinic,11,353.5944502204158,3.885845929633331,14.733102092517326,-0.17807994,-8.020532600416667,-2.375250615387931,False,2.070599999999999
mp-23038,Cs2 V2 Br6,10,Hexagonal,194,326.19875647830327,4.312316786436811,32.61987564783033,2.74989171,-4.563302533000001,-1.582757883931035,False,0.6528
mp-22977,Cs2 V2 Cl6,10,Hexagonal,194,281.0246095963259,3.42958092661,28.102460959632587,3.49793119,-13.44505887,-1.913989785499998,False,0.48349999999999904
mp-1228886,Cs2 V2 Fe2 F12,18,Orthorhombic,74,303.85829826298664,3.865639989012002,16.881016570165926,0.40015783,-6.341845835,-3.014621490517241,True,1.814
mp-22991,Cs2 V2 I6,10,Hexagonal,194,407.9054999130535,4.596528051662015,40.790549991305355,3.602657439999999,-4.053066899000001,-1.140282601931036,False,0.597299999999999
mp-1029293,Cs2 V2 N4,8,Cubic,227,145.22549879139612,4.844912139002631,18.153187348924515,3.03880376,-15.31549751,-0.9516149918749991,False,0.5028
mp-1228899,Cs2 V2 Ni2 F12,18,Orthorhombic,74,291.61976382353697,4.060309672391199,16.201097990196498,0.389465499999999,-5.9647103516666675,-2.936362066072798,False,2.3655
mp-562901,Cs4 V4 P8 O28,44,Monoclinic,14,656.0138472933266,3.622635304012956,14.909405620302879,1.84795286,-7.772078218636364,-2.73039115263099,False,1.8855
mp-1198694,Cs4 V4 P4 O20,32,Orthorhombic,19,587.2548065307553,3.334541163477139,18.351712704086104,0.36650771,-7.671410117187499,-2.653014843349753,True,2.8884
mp-1181965,Cs8 V8 S8 O48,72,Orthorhombic,61,1300.304173864268,3.186552893940551,18.059780192559277,-0.78226283,-7.08262691375,-2.21395922065613,True,2.141
mp-1225864,Cs2 V2 Te2 O12,18,Orthorhombic,74,263.6180129369864,5.132999795564999,14.645445163165911,3.8961507600000003,-6.729615426111112,-1.971509252369094,False,1.7666
mp-1225824,Cs2 V2 Zn2 F12,18,Orthorhombic,74,302.1591874635917,3.992496770166296,16.786621525755095,-0.11365676,-5.5585013127777785,-3.032418923850575,False,2.296599999999999
mp-1226055,Cs4 W12 Br28,44,Trigonal,159,1440.8859841898745,5.733420183859311,32.74740873158806,0.94984893,-5.736964686136363,-1.078692503832287,False,2.7127
mp-1213572,Cs4 W12 Cl28,44,Trigonal,159,1379.5334387138819,4.490250974115556,31.35303269804277,1.33140066,-6.156081802272727,-1.3631574513322882,True,2.9160999999999992
mp-1213375,Cs2 Y2 Nb12 Br36,52,Trigonal,163,1602.2225711695792,4.596466538460527,30.811972522491907,2.16788932,-5.264105971730769,-1.514493012486737,True,0.9779000000000001
mp-669309,Cs1 Y10 C4 I18,33,Triclinic,2,1168.7650689530528,4.765649747682933,35.41712330160766,3.766747709999999,-5.394668255757575,-1.444796085747126,False,0.21700000000000003
mp-1199735,Cs6 Y12 Cu6 Te24,48,Monoclinic,12,1705.6601659348337,5.167562990039006,35.534586790309035,3.68603937,-5.136573425624999,-1.311749573915229,False,0.687299999999999
mp-11116,Cs2 Y2 Cd2 Se6,12,Orthorhombic,63,396.23847645686567,4.786701643970068,33.01987303807214,1.3804858100000001,-4.7247607175,-1.580625101947736,True,2.085499999999999
mp-11123,Cs2 Y2 Hg2 Se6,12,Orthorhombic,63,395.6168674457141,5.534457439856658,32.96807228714284,1.55705454,-4.4916549025,-1.455908979031071,True,1.3946
mp-1213646,Cs2 Y2 Mn2 Se6,12,Orthorhombic,63,381.41155009229914,4.472342780774713,31.784295841024928,2.61956053,-6.076142688333333,-1.565006222436242,False,0.5245000000000001
mp-541044,Cs2 Y2 O4,8,Hexagonal,194,147.8654114591104,5.700610921022929,18.4831764323888,2.37184468,-7.26273716,-2.934489389913794,False,2.8461
mp-574620,Cs2 Y2 Zn2 Se6,12,Orthorhombic,63,374.11518622181717,4.652519107341447,31.176265518484765,1.559183749999999,-4.8390025075,-1.644911321947737,True,2.1117
mp-1103744,Cs2 Y2 Zn2 Te6,12,Orthorhombic,63,451.159835658839,4.932153967541584,37.59665297156992,2.86641245,-4.326730928333333,-1.308942534942528,True,1.4051
mp-1213115,Cs2 Yb2 Mn2 Se6,12,Orthorhombic,63,366.09964612744795,5.42262004178134,30.508303843953996,2.11758656,-21.569522715,-1.693548189445043,False,1.2409
mp-1101093,Cs1 Zn4 P3,8,Tetragonal,123,171.48789654608754,4.7201635572992515,21.435987068260943,3.30909213,-11.36700594375,-0.397369399241069,True,0.12020000000000002
mp-1225874,Cs2 Zn2 Co2 F12,18,Orthorhombic,74,292.6498649195276,4.212920528342598,16.258325828862645,-1.81734835,-4.828291933333334,-2.51893058329502,True,1.6216
mp-1225833,Cs2 Zn2 Fe2 F12,18,Orthorhombic,74,282.19780358813057,4.332615176676145,15.677655754896143,-1.71003971,-5.233905842777777,-2.776032882739463,True,2.2145
mp-571410,Cs2 Zr12 B2 I28,44,Orthorhombic,64,1601.133070626066,5.118563316434741,36.38938796877423,3.40652962,-4.938892611818182,-1.292994896764629,False,0.8390999999999991
mp-1213455,Cs4 Zr24 C4 Cl60,92,Orthorhombic,51,2677.860940447186,3.036141823053018,29.107184135295498,1.59653484,-6.082261499130435,-2.20613154944153,False,1.1421000000000001
mp-582176,Cs2 Zr12 C2 I28,44,Orthorhombic,64,1607.6658456416858,5.100242267198717,36.53786012822013,3.96902597,-5.037727288863636,-1.275953495552508,False,0.071899999999999
mp-1213469,Cs2 Zr12 Mn2 Cl28,44,Orthorhombic,64,1176.2681395501618,3.47710317488453,26.733366807958223,2.61988085,-6.02645572,-2.061192272617555,False,1.234
mp-570192,Cs2 Zr12 Mn2 I28,44,Orthorhombic,64,1658.37496254546,5.030255854481192,37.690340057851365,3.4132092800000002,-4.970783271590909,-1.212039032844827,False,0.5971000000000001
mp-7152,Cs2 Zr2 Cu2 Se6,12,Orthorhombic,63,330.8119260063073,5.266102894134232,27.56766050052561,3.41984656,-5.362389176666666,-1.355285959447736,True,0.2984
mp-556582,Cu2 I4 O12,18,Monoclinic,11,256.7608623166428,5.346500569506531,14.264492350924598,3.59679234,-4.922429120555553,-0.829651572777775,True,0.49990000000000007
mp-28888,Cu2 Pt4 S8,14,Monoclinic,10,250.62071217116076,7.711976830434304,17.901479440797196,5.5234862,-21.280624204285715,-0.428877614464287,False,0.1401
mp-768451,Cu4 S6 O24,34,Trigonal,148,408.3851043510847,3.377147325515586,12.011326598561315,0.54720112,-6.167490957058824,-1.462254245147059,False,0.1135
mp-15252,Cu4 Ge2 S6,12,Monoclinic,9,218.79390568055214,4.491883289283199,18.232825473379346,5.10895678,-4.778898242499999,-0.5728115929166641,False,0.111099999999999
mp-1203834,Cu4 H20 N8 O34,66,Monoclinic,15,685.2302189976849,2.254608235005848,10.382276045419468,-0.49098999,-5.858583649696969,-1.021658625681818,False,1.0384
mp-2932665,Cu4 Hg4 S2 F12,22,Triclinic,2,337.8824553223064,6.628027029062678,15.3582934237412,1.09105791,-3.807844454090909,-1.5860961602272732,False,0.49670000000000003
mp-23353,Cu2 Hg1 I4,7,Tetragonal,121,233.48895157130423,5.9405298354886265,33.35556451018632,2.55977603,-2.531063238571428,-0.44475811892857203,True,0.5589000000000001
mp-361,Cu4 O2,6,Cubic,224,76.5869082712687,6.20494716806907,12.764484711878117,4.17791244,-5.02663022,-0.6445054383333331,True,0.512699999999999
mp-760432,Cu4 O6,10,Orthorhombic,43,97.66062516736574,5.954172764725702,9.766062516736573,3.11928098,-5.46033676925,-0.851877498249999,False,0.136
mp-28034,Cu8 P28,36,Monoclinic,12,637.0008602196015,3.5860122621463812,17.694468339433374,5.9919008,-9.551364844444445,-0.13935082398148102,False,0.8419999999999991
mp-683899,Cu8 P32 Se12 Br8,60,Orthorhombic,57,1529.6354201546437,3.350399108563484,25.49392366924406,3.09083574,-4.692795065333333,-0.340539795611605,False,1.5045000000000002
mp-570817,Cu8 P32 Se12 I8,60,Orthorhombic,57,1686.9751917777085,3.408027639531118,28.11625319629514,2.50895328,-4.616166584500001,-0.27896917077827305,False,1.411699999999999
mp-29396,Cu4 Pb2 O4,10,Monoclinic,15,149.8239050378739,8.119401012574201,14.982390503787391,5.06329905,-5.34244191,-0.9810454259999981,False,0.629
mp-1106310,Cu4 Si2 Hg2 S8,16,Orthorhombic,31,307.65878399004623,5.224921990751516,19.22867399937789,4.40947888,-4.443386090624999,-0.6325308809374991,True,0.401099999999999
mp-1212937,Cu4 Si2 Hg2 Se8,16,Orthorhombic,31,370.67953828618073,6.017221756171246,23.167471142886296,3.32948281,-4.002321478125,-0.5126903133593751,True,0.0161
mp-15896,Cu4 Si2 Se6,12,Monoclinic,9,247.9726555194205,5.250795042218217,20.664387959951707,4.35708324,-4.5357676,-0.5171899661718741,False,0.23869999999999902
mp-675120,Cu4 Si2 Te6,12,Monoclinic,9,311.4248558081254,5.737067154666678,25.952071317343783,5.45107964,-17.896011221666665,-0.10950630083333301,False,0.267099999999999
mp-1025340,Cu2 W1 Se4,7,Tetragonal,121,173.33187043550686,6.004547168596251,24.76169577650098,2.21600756,-19.016098054285717,-0.40072272517857405,False,1.275699999999999
mp-643793,Cu6 H4 O4 F8,22,Monoclinic,14,230.14628260266366,4.338413888568141,10.46119466375744,1.39166512,-4.860984746818182,-1.5301407106818181,True,0.32170000000000004
mp-1194777,Cu6 Hg4 Te12 O32,54,Tetragonal,90,905.005457405235,5.920688448138194,16.759360322319168,3.76324714,-5.373652886666666,-1.264609348703703,False,0.215199999999999
mp-557905,Cu12 Mo32 Br8 O92,144,Orthorhombic,57,2130.6007284396765,4.63246190853835,14.795838391942198,2.62219763,-7.742388443124999,-1.73850463548611,False,0.019299999999999002
mp-679930,Cu12 P60 I8,80,Monoclinic,14,1788.4100505522883,3.376224896618584,22.355125631903604,4.51220237,-4.9517338705,-0.12284646448214201,False,1.012
mp-565597,Cu18 P24 S24 I18,84,Hexagonal,185,2257.0591752912483,3.635167371976242,26.869752086800574,3.18487789,-4.377074272023809,-0.442432112993196,True,1.626
mp-680446,Cu36 P48 Se48 Br36,168,Monoclinic,4,4275.137708685938,4.055476979465903,25.447248265987728,2.51970785,-4.239086009226191,-0.463800321579506,True,1.3783
mp-559558,Cu12 P32 S24 Cl12,80,Orthorhombic,62,1959.5339883303402,2.498780575791424,24.494174854129252,3.22286352,-4.84527252175,-0.545412820857142,False,1.872599999999999
mp-1200788,Cu12 P32 Se24 Br12,80,Orthorhombic,62,2105.5080413302685,3.63385002133697,26.318850516628356,2.23456442,-4.478388995125,-0.40300316093526606,False,1.364599999999999
mp-3934,Cu6 P2 S8,16,Orthorhombic,31,273.49698499786626,4.248498235589031,17.09356156236664,5.41957682,-9.572404965625,-0.36209738552827203,False,1.0202
mp-28995,Cu8 Si2 P16,26,Tetragonal,88,421.329328713269,4.178131484329747,16.204974181279574,6.44996917,-9.723779190384615,-0.17165926029304002,False,1.2078
mp-34126,Cu4 Sn1 P10,15,Trigonal,160,269.5060797975346,4.205977371486426,17.967071986502308,6.13030123,-10.711879308,-0.16827058131746,False,0.24169999999999903
mp-1225822,Cu10 Se2 Cl10 O8,30,Monoclinic,4,574.7060861803676,3.6865634118465733,19.156869539345585,1.7206409900000001,-4.504474581666667,-0.9693743918229171,False,0.06769999999999901
mp-28717,Cu12 As8 S18,38,Triclinic,1,720.7573019066266,4.4674437022325915,18.967297418595436,4.90636587,-10.586249103421054,-0.2585705934375,False,0.3558
mp-557225,Cu12 Ge2 W2 S16,32,Hexagonal,186,617.8851845520105,4.806654282864693,19.30891201725033,4.27481677,-5.3460972846875,-0.6408926193749991,True,0.8154
mp-1190563,Cu6 Hg3 Sb4 S12,25,Trigonal,146,556.725417138744,5.532489377147434,22.269016685549758,4.8144933,-4.1193626516,-0.4513396155,True,0.18609999999999902
mp-1202008,Cu2 Ag4 N8 O24,38,Triclinic,2,514.1224217111187,3.406214294183453,13.529537413450493,0.2695067,-6.141723583421053,-0.7462643693859651,False,0.144799999999999
mp-1213222,Cu2 Ag4 P8 O24,38,Monoclinic,15,517.1146481467572,3.822376533420224,13.608280214388348,1.79865619,-6.8722210389473695,-2.092089029047619,False,0.39569999999999905
mp-1213198,Cu2 Ag4 P4 O14,24,Monoclinic,15,338.42482145622563,4.447658522514229,14.101034227342735,2.12211991,-6.443637827083333,-1.839324817718253,False,0.47230000000000005
mp-2763763,Cu4 Ag4 F12,20,Monoclinic,14,246.82588963962434,6.146563448001488,12.341294481981217,2.68853135,-9.880689703,-1.5645383039999992,False,0.2559
mp-557871,Cu2 As2 Pb2 O8,14,Triclinic,2,225.27269510929304,6.039480892226779,16.090906793520933,3.34031849,-6.112714168571428,-1.502168412499999,False,1.8171
mp-628643,Cu4 As4 Pb4 S12,24,Orthorhombic,31,560.6012349255601,5.235308548450686,23.358384788565004,4.62552529,-4.703906144166667,-0.5543969816666651,False,0.7903000000000001
mp-12954,Cu2 B2 S4,8,Tetragonal,122,112.25620366222348,4.097111183417321,14.032025457777936,6.42471159,-5.355558385,-0.5917289910416661,True,1.742499999999999
mp-983565,Cu2 B2 Se4,8,Tetragonal,122,135.12284594939484,5.708953657135069,16.890355743674355,4.97317333,-11.8904752225,-0.186407557656249,True,1.487
mp-556303,Cu2 Bi4 Se8 O24,38,Monoclinic,14,619.0678341439606,5.307454095740937,16.29125879326212,2.47142885,-5.848941756315789,-1.362707374177632,False,0.7250000000000001
mp-865018,Cu4 Bi4 Pt4 S12,24,Orthorhombic,19,483.62144535687486,7.74341916925691,20.150893556536452,5.6987182,-24.613786560833333,-0.45682257890625005,False,0.47489999999999905
mp-22982,Cu4 Bi4 S8,16,Orthorhombic,62,351.083774685468,6.369204668848578,21.942735917841752,5.25309316,-21.701679113125,-0.346912135781249,False,0.464
mp-23116,Cu2 Bi2 Se2 O2,8,Tetragonal,129,141.45518875529484,8.627813976854387,17.681898594411855,6.26993539,-5.05913956625,-0.950861200585937,False,0.30060000000000003
mp-22913,Cu1 Br1,2,Cubic,216,45.25114146849795,5.264051278564948,22.625570734248974,3.37355005,-3.385688824999999,-0.517612222499999,True,0.48709999999999903
mp-24522,Cu2 H4 S2 O10,18,Triclinic,2,185.09721909067943,3.186988906155021,10.283178838371079,1.70409516,-5.867541313333334,-1.4489075200000001,False,0.007200000000000001
mp-1194904,Cu4 Hg4 Se8 O24,40,Monoclinic,14,614.6164574116133,5.598589093228765,15.365411435290332,2.27012307,-5.183325773,-1.07447900371875,False,0.7590999999999991
mp-570081,Cu2 I2,4,Trigonal,164,110.40773980176633,5.728773114188356,27.60193495044158,4.03031253,-3.155027610833333,-0.34341796833333205,True,1.6471
mp-1192231,Cu4 I4 O16,24,Orthorhombic,62,370.76041099356434,4.55842585268151,15.44835045806518,1.84956325,-5.053469483333333,-0.8176255991666661,False,0.9536
mp-571184,Cu8 Mo24 Br56,88,Cubic,201,2591.9819360623783,4.6674490857464885,29.454340182527027,1.78081975,-5.334397025340909,-0.9621440485227271,True,1.6943000000000001
mp-568397,Cu8 Mo24 Cl56,88,Cubic,201,2156.398654110011,3.693397261122107,24.504530160341037,2.45048744,-13.001847211477271,-0.990046611249999,False,1.9002000000000001
mp-29440,Cu8 Mo24 I56,88,Orthorhombic,61,3279.520050455627,5.021626943289219,37.26727330063213,3.06621489,-4.898717479204546,-0.5983315423863641,True,1.5743
mp-1191203,Cu4 Ni4 Sb4 S12,24,Orthorhombic,19,455.9470745923718,4.955891794621884,18.99779477468216,6.03765865,-4.956162006666667,-0.552258124583332,True,0.0911
mp-606644,Cu4 P40,44,Triclinic,2,942.532633788055,2.630580678955053,21.421196222455794,4.7928752800000005,-9.233567167727273,-0.063789065887445,False,1.0585
mp-927,Cu4 P8,12,Monoclinic,14,190.93693187864682,4.365565051390864,15.911410989887235,6.84813622,-9.773293335833333,-0.156310461150794,True,0.8679000000000001
mp-21533,Cu4 P8 Pb4 O28,44,Monoclinic,14,582.3601283083905,5.071940602437058,13.23545746155433,3.36957578,-7.08671638090909,-2.2432138512987,False,0.8003
mp-505436,Cu4 P16 O44,64,Triclinic,2,833.2873026328564,2.896946093600108,13.020114103638381,1.99513986,-7.34170905640625,-2.3299170672544642,False,0.6119999999999991
mp-1197804,Cu4 P16 S12 Br4,36,Orthorhombic,64,886.969741153542,2.722403815907123,24.638048365376168,3.83164506,-4.869429809999999,-0.44574914234126706,False,1.739999999999999
mp-554724,Cu4 P16 S12 I4,36,Orthorhombic,64,987.0250966749437,2.762720303091585,27.417363796526214,2.37591492,-4.80039001111111,-0.38925755678571206,False,1.731399999999999
mp-1196912,Cu4 P16 Se12 Cl4,36,Monoclinic,14,936.9135845457997,3.259522675756452,26.025377348494438,3.80784553,-4.645224347222222,-0.412182346733631,False,1.6399
mp-571015,Cu4 P16 Se16 I4,40,Orthorhombic,64,1205.4967229933804,3.472253891312498,30.13741807483451,2.07188299,-4.497677164500001,-0.37080123479464305,True,1.7151
mp-1201654,Cu6 P6 H6 O24,42,Trigonal,148,488.56606412405074,3.253169004569709,11.632525336286923,0.83103872,-6.549502641190476,-1.877832547746598,True,0.722399999999999
mp-504265,Cu4 P4 O16,24,Monoclinic,14,267.38799728229196,3.937712612544505,11.141166553428832,1.4920363700000001,-6.771756299166667,-1.887335596607143,False,0.32770000000000005
mp-1105187,Cu4 P4 S12,20,Tetragonal,136,420.37823665904114,3.013374958658294,21.018911832952057,3.88391309,-9.091445677500001,-0.300671765782739,False,1.1555
mp-1213055,Cu1 Pb1 F6,8,Triclinic,2,109.23358504038055,5.848657756579373,13.654198130047568,-0.39103304,-12.6980819625,-1.962069736249999,False,0.2011
mp-28488,Cu2 Pt2 F12,16,Triclinic,2,192.42413206826637,6.431113981846667,12.026508254266648,-0.046832599999999,-11.750046848125,-1.613711773125,False,0.0814
mp-1192782,Cu1 Re2 H8 O12,23,Triclinic,2,288.85666638902063,3.656242244839914,12.55898549517481,-0.16283702,-6.600406727391304,-1.5772633076086962,False,1.3068
mp-1181782,Cu8 Re8 O32,48,Tetragonal,110,750.3369599335266,5.554785716703551,15.632019998615137,1.22674424,-7.8256634060416665,-1.769135923125,False,1.495299999999999
mp-14116,Cu1 Rh1 O2,4,Trigonal,166,46.91270234409874,7.024418962510328,11.728175586024685,4.17134387,-6.3010597525,-0.9612006149999991,False,0.6553000000000001
mp-554497,Cu1 Sb2 Xe4 F20,27,Tetragonal,82,545.5310885417567,3.68982734131997,20.204855131176174,-3.13678392,-3.627508214444444,-1.746806239259259,False,0.6888000000000001
mp-606617,Cu2 Sb4 Xe4 F32,42,Monoclinic,14,795.2639831493623,3.648325292157126,18.934856741651483,-2.66803571,-4.052287251904762,-2.002230323809523,True,0.0694
mp-1196390,Cu4 Sb12 Xe4 F92,112,Monoclinic,14,1863.445899791747,3.554048052829835,16.63790981956917,-2.60085699,-4.245195200982143,-2.083017015803571,False,0.5704
mp-1190199,Cu1 Sb6 S2 O16,25,Triclinic,2,386.17265275257193,4.791163882395749,15.446906110102878,3.6781204,-6.4050161496,-1.7523237766,False,0.42300000000000004
mp-4468,Cu4 Sb4 S8,16,Orthorhombic,62,334.6434953908593,4.95091915212826,20.915218461928706,5.81889082,-13.459863785,-0.30408631140625,False,0.722699999999999
mp-20331,Cu4 Sb4 Se8,16,Orthorhombic,62,383.64935720103887,5.942303001166693,23.97808482506493,4.8419184,-16.542633859375,-0.248575811406251,False,0.49859999999999904
mp-29567,Cu4 Se8 Br4,16,Monoclinic,14,424.0586384784689,4.720447722011455,26.503664904904305,1.60435259,-3.766077258124999,-0.584083218046874,False,0.8486
mp-31038,Cu4 Se8 Cl4,16,Monoclinic,14,395.4250027898748,4.31560000952706,24.714062674367174,1.81713281,-11.74204947625,-0.336460636406249,False,0.8067000000000001
mp-28741,Cu4 Se12 Br4,20,Orthorhombic,53,524.0881839571858,4.8202027256662685,26.20440919785929,1.9001275,-3.780614000999999,-0.5358364734062491,False,1.029899999999999
mp-4701,Cu1 Sn1 F6,8,Triclinic,2,103.38683784071058,4.758137135211362,12.923354730088823,0.26622826,-9.13540924125,-2.341765806249999,False,0.099499999999999
mp-31036,Cu4 Te8 Br4,16,Monoclinic,14,486.89380095441527,5.438343208333977,30.430862559650954,3.31252094,-3.553411298124999,-0.547720050208331,False,0.7460999999999991