material_id,composition,nsites,crystal_system,space_group,volume,density,density_atomic,efermi,energy_per_atom,formation_energy_per_atom,is_gap_direct,band_gap
mp-30971,Cu4 Te8 Cl4,16,Monoclinic,14,457.96920566841163,5.137125112962343,28.623075354275727,3.7893100200000003,-17.289873135625,-0.331452256250003,False,0.5968999999999991
mp-31037,Cu4 Te8 I4,16,Monoclinic,14,530.6655370966954,5.578052191083276,33.16659606854346,3.89981109,-3.403728055624999,-0.42627028770833103,False,0.8277999999999991
mp-1203135,Cu4 Te8 Pb4 O28,44,Orthorhombic,57,624.0054489561969,6.790500197644811,14.181942021731748,5.28222239,-5.845327369772727,-1.414946227803029,False,0.1653
mp-568778,Cu8 Te8 Br8,24,Orthorhombic,70,687.0319705093498,5.240968494298676,28.62633210455624,3.08294542,-3.571993277499999,-0.6121735780555541,False,0.801199999999999
mp-23370,Cu8 W24 Br56,88,Cubic,201,2613.646364440705,5.9690618994599856,29.700526868644374,1.9539397200000002,-5.74787373375,-0.799489815113635,True,2.0538
mp-29557,Cu8 W24 Cl56,88,Cubic,201,2170.840785750502,5.282520106103557,24.668645292619342,2.25512524,-19.693061269545453,-0.78240204931818,True,2.4028
mp-1225724,Dy2 Cu6 S6,14,Trigonal,148,242.72229390964077,6.148054951147953,17.337306707831484,5.38992048,-13.668691549285715,-1.007664624776785,False,1.3966
mp-1213039,Dy2 Zn6 P6,14,Hexagonal,194,269.61229079306406,5.563393427353524,19.258020770933147,4.05377093,-12.977568861428571,-0.73187743627551,False,0.280299999999999
mp-1205037,Dy22 In12 Si8,42,Tetragonal,139,1057.869899215305,8.12712510649827,25.187378552745354,5.15043281,-25.607525003809524,-0.732932806904765,False,0.019600000000000003
mp-1213210,Dy4 Au10 F42,56,Triclinic,2,905.8072508995828,6.265191655441662,16.175129480349693,-1.46762262,-4.581684611785714,-2.231789578511904,True,1.5532
mp-1225760,Dy16 C8 I24,48,Monoclinic,14,1691.3713781429058,5.637124710029323,35.23690371131054,3.3016921,-5.187855692500001,-1.348279960138888,False,0.552099999999999
mp-16267,Dy4 Cd2 S8,14,Cubic,227,354.90423888750905,5.293364752627914,25.350302777679218,1.76238062,-5.762212635714285,-1.940755561904759,True,1.0877
mp-570959,Dy4 Cd2 Se8,14,Cubic,227,402.46538964599574,6.21570323627435,28.74752783185684,1.53865456,-5.223627139285717,-1.7692832596726191,True,0.5809000000000001
mp-1232352,Dy4 Cr2 Fe2 O12,20,Monoclinic,14,229.67345952802287,7.64699003914235,11.483672976401143,3.4199627,-8.7483131715,-3.043554594833332,True,2.224199999999999
mp-1225509,Dy4 Cr2 Sb2 O14,22,Orthorhombic,74,273.6742575724841,7.411565844343734,12.43973898056746,4.55174914,-8.29014772090909,-3.048827102575755,False,1.894299999999999
mp-1232083,Dy4 Mg2 Se8,14,Cubic,227,392.0563200590455,5.634390779810993,28.004022861360394,1.65735622,-5.503637124999999,-1.953513270386902,True,1.287399999999999
mp-755869,Dy4 Mn4 O14,22,Cubic,227,242.39587966859267,7.492719257538114,11.017994530390576,2.72283343,-8.547644318636364,-2.893416257199581,False,0.9041
mp-1104659,Dy4 Mn2 Ni2 O12,20,Monoclinic,14,222.14852354332828,7.992584497564907,11.107426177166413,3.77989048,-8.2416893825,-2.855022476626436,False,0.5364999999999991
mp-17822,Dy8 Mo4 O24,36,Monoclinic,15,456.5587583056155,7.520548639419288,12.682187730711542,2.6956710900000003,-8.717564141666667,-3.187545564259259,False,2.166
mp-769222,Dy4 Pb4 O14,22,Cubic,227,302.7367702542192,9.339968751413714,13.760762284282691,4.82354096,-7.212249008636363,-2.5488151693939383,True,1.1816
mp-1178365,Dy4 Pt4 O14,22,Cubic,227,264.43531897196914,10.388459527397002,12.019787225998597,3.70919263,-7.550688845000002,-2.458439323939394,False,1.5345
mp-1270,Dy8 S12,20,Orthorhombic,62,428.8936415691947,6.522929550530526,21.444682078459735,4.20957208,-19.9928767695,-2.379156030187499,True,0.593799999999999
mp-7368,Dy8 Se12,20,Orthorhombic,62,488.7204797931984,7.636460752665949,24.436023989659923,3.77396666,-23.5422564655,-2.162599036937499,True,0.3663
mp-769284,Dy2 Se1 O2,5,Trigonal,164,85.94814519555962,8.422830035260105,17.189629039111924,3.62629283,-8.014942905999998,-3.489225997135413,False,2.1479
mp-1194579,Dy12 Se6 O6 F12,36,Hexagonal,176,584.6150308784379,7.804665956430993,16.239306413289942,2.97936494,-7.321503372777777,-3.736781991223956,True,2.8497999999999992
mp-1225372,Dy2 Si9 B36 C1,48,Monoclinic,8,488.2379545814814,3.329581836309934,10.171624053780862,6.61601066,-6.617874800208334,-0.20638766335069403,False,1.172199999999999
mp-20845,Dy4 Sn4 O14,22,Cubic,227,280.6959150561688,7.979409196661769,12.758905229825855,4.10661235,-7.7447078099999995,-3.027287646212119,True,2.7123
mp-1188427,Dy8 Te12,20,Orthorhombic,70,703.1352165530799,6.686222073194957,35.156760827654,3.69029917,-29.724184564,-1.6811286880000011,True,0.5488000000000001
mp-555940,Dy4 Te10 O26,40,Triclinic,2,613.136473192787,6.342725901326319,15.328411829819675,3.31887795,-6.659522304499999,-2.195683625083332,False,2.985999999999999
mp-16037,Dy2 Te1 O2,5,Tetragonal,139,95.13070243770011,8.45883840240184,19.026140487540022,4.98653537,-7.7830986,-3.327902807999997,False,0.8027999999999991
mp-1225289,Dy2 Te1 S2,5,Orthorhombic,71,150.4204884132723,5.704344939545537,30.08409768265446,2.38795907,-23.247873756,-2.1577079711250002,False,1.835799999999999
mp-1199023,Dy8 Zr4 S20,32,Orthorhombic,62,649.1665852188473,5.899146136650949,20.28645578808898,4.74189545,-6.987715542812502,-2.178184352291667,True,1.1966
mp-1189135,Dy6 Cu6 Sb8,20,Cubic,220,433.92005857507115,8.917880380531507,21.696002928753558,6.91506073,-5.0610015465,-0.794126390999998,False,0.2964
mp-558740,Dy6 Cu2 Ge2 S14,24,Hexagonal,173,491.98697692889584,5.725237986080818,20.499457372037327,4.38431501,-6.016324667083333,-1.720834826874997,False,1.8098
mp-505558,Dy6 Cu2 Ge2 Se14,24,Hexagonal,173,564.7480926914009,6.918015824978044,23.53117052880837,3.85721437,-5.45297991875,-1.532251464283852,False,1.1277
mp-557998,Dy6 Cu2 Si2 S14,24,Hexagonal,173,482.8228936522818,5.527437883272189,20.117620568845073,4.67866981,-6.172330595416667,-1.809983240624998,False,1.800599999999999
mp-569557,Dy6 Cu2 Si2 Se14,24,Hexagonal,173,557.4204977445373,6.743503839362457,23.225854072689057,3.97592453,-5.56696397125,-1.579378002200519,False,1.5196
mp-1205197,Dy24 Ga16,40,Tetragonal,140,992.2843882107703,8.393306096658822,24.80710970526926,3.18312436,-24.41023177025,-0.6440394552499981,True,0.005699999999999
mp-1189242,Dy6 Ga2 S12,20,Orthorhombic,36,454.74506826747484,5.474547205420483,22.737253413373743,3.09101657,-17.5610407345,-2.001222722687498,False,2.061499999999999
mp-556247,Dy12 S12 N4,28,Orthorhombic,62,585.0249408989091,6.786083489009647,20.893747889246754,3.46607217,-20.75666949892857,-2.302504128526781,True,1.3945
mp-1212841,Dy6 Sb2 O14,22,Orthorhombic,20,298.21686913825135,8.032231284385208,13.55531223355688,6.00138329,-8.209743858636363,-3.426120689545452,False,2.7960000000000003
mp-567391,Dy12 Se12 N4,28,Orthorhombic,62,648.1379584678403,7.567030726028321,23.147784230994297,3.09811198,-23.296925390357142,-2.152805241919643,True,1.170999999999999
mp-1212922,Dy16 Cd4 Ni4,24,Cubic,216,604.2736048824808,9.025553477367737,25.178066870103365,3.631381799999999,-4.48378745125,-0.28151262069444,False,0.036799999999999
mp-1212919,Dy16 Cd4 Pt4,24,Cubic,216,632.3183382725643,10.057958198193562,26.346597428023514,3.63343215,-4.841626145833335,-0.590851875277776,False,0.025799999999999
mp-1212902,Dy16 Mg4 Ni4,24,Cubic,216,622.197931183994,7.8249857027914524,25.924913799333083,3.54836958,-4.5014315112500025,-0.187413376527776,True,0.012600000000000002
mp-1201962,Dy16 Te12 N8,36,Monoclinic,14,935.4853367821931,7.532013699463911,25.985703799505366,3.64655857,-26.563723196111113,-1.848569065833332,True,1.8172000000000001
mp-1095296,Dy4 Te3 S4,11,Monoclinic,12,304.6948570207459,6.327594458003352,27.69953245643145,3.64478231,-23.456978740909094,-1.973443999204546,False,1.396599999999999
mp-567407,Dy20 C8 Br36,64,Monoclinic,14,1866.3323662618686,5.536484141073776,29.161443222841697,1.58048381,-5.410663163281249,-1.8930551981770811,True,0.8479999999999991
mp-570607,Dy20 C8 I36,64,Monoclinic,14,2318.2904782813303,5.669082398394276,36.223288723145785,2.8014094,-4.883175353125,-1.429092718020832,True,0.6995
mp-1225400,Dy6 Al2 Si1 S14,23,Trigonal,143,483.3983055201221,5.173172974678242,21.017317631309655,4.04753506,-6.261183055217391,-1.975802324565215,False,2.466999999999999
mp-1232410,Dy12 Al86 Mo8,106,Hexagonal,193,1865.3351466701147,4.484815206809605,17.597501383680328,7.42065313,-4.697392663679246,-0.317154658018866,False,0.0383
mp-1196453,Dy6 H40 N8 O49,103,Triclinic,2,1023.5881695228612,3.100717478988679,9.937749218668555,-0.56680425,-6.157639409708738,-1.5685790026699031,False,2.9558
mp-1225409,Dy6 Mn1 Si2 S14,23,Trigonal,143,478.77716111322167,5.323894494613837,20.816398309270507,4.99923231,-6.4812138982608705,-1.8873035301274341,False,0.986699999999999
mp-32633,Dy24 Se44,68,Triclinic,1,1606.3637901596953,7.622939262884551,23.622996914113166,4.13391683,-22.47818999294118,-1.9300734111580882,False,0.5265000000000001
mp-1213274,Dy12 Ta8 Al86,106,Hexagonal,193,1866.5242489314946,5.086970974359839,17.608719329542403,7.12795409,-13.088060294245283,-0.338279569893081,False,0.025
mp-1201241,Dy14 C4 I24 O2,44,Triclinic,2,1597.754862445477,5.612972750031127,36.31261051012448,3.71480361,-5.045466527727273,-1.680826888257574,True,0.027099999999999003
mp-1191058,Dy16 Ga6 Co2,24,Hexagonal,186,602.2635267316751,8.647028550273864,25.094313613819796,3.62050949,-4.822763782083333,-0.392371364236108,True,0.0001
mp-1192724,Dy16 In6 Co2,24,Hexagonal,186,652.7106431628198,8.667059477190438,27.196276798450825,4.5258093,-4.695711125833333,-0.33254927777777404,True,0.0019000000000000002
mp-1226139,Dy18 Al10 S42,70,Trigonal,146,1460.686305970055,5.162924787729597,20.86694722814364,4.06091621,-15.992867361,-1.986247320973214,False,2.4394
mp-2206902,Dy8 Ag8 S16,32,Orthorhombic,19,724.0530453162919,6.137089898597041,22.626657666134122,4.46225658,-18.897833786875,-1.545914153281248,False,1.7401
mp-1181462,Dy4 Ag4 Se8,16,Orthorhombic,19,396.0804617302096,7.182270842213075,24.7550288581381,2.81310035,-5.050084810000001,-1.436800769505207,True,1.306
mp-4024,Dy2 Ag2 Te4,8,Tetragonal,113,238.30985197107742,7.3243008716950655,29.788731496384678,4.30147812,-4.5572283875,-1.120247139166664,False,0.895799999999999
mp-1102052,Dy4 As4 S4,12,Orthorhombic,62,251.50065976486522,7.117166653058977,20.95838831373877,5.20541298,-6.191975849166667,-1.7163566397222212,True,0.028800000000000003
mp-2029542,Dy4 As4 S4,12,Orthorhombic,62,248.8452122576166,7.193114517500801,20.73710102146805,5.47644573,-20.0318298275,-1.7903853959375011,False,0.4718
mp-1102952,Dy4 As4 Se4,12,Orthorhombic,62,267.66144695062616,7.851171885061581,22.305120579218848,4.4284431,-21.994098045833336,-1.6604665646875012,False,0.078199999999999
mp-864993,Dy4 B16 Mo4,24,Orthorhombic,55,253.46288488737142,7.905821288047908,10.560953536973809,6.87944532,-15.256219772083334,-0.683019862916668,False,0.281299999999999
mp-1192160,Dy4 B16 W4,24,Orthorhombic,55,253.99482253271555,10.187915568853274,10.583117605529814,6.27687614,-7.976767455833342,-0.5944219822222291,False,0.5661
mp-552992,Dy1 Bi2 Br1 O4,8,Tetragonal,123,142.79458737857396,8.423513003242995,17.849323422321746,3.59795013,-6.64414945125,-2.415745113333333,False,1.329
mp-552008,Dy1 Bi2 Cl1 O4,8,Tetragonal,123,137.8567719620325,8.189800366409605,17.232096495254062,3.6228786900000003,-6.72164005375,-2.466786182708333,False,1.3739
mp-1195550,K8 Ce4 P8 O32,52,Monoclinic,14,700.135814839327,3.873099477449335,13.464150285371675,2.83110622,-7.523672961153846,-3.014878776060439,True,1.4179
mp-557649,K4 Ce2 Si12 O30,48,Monoclinic,15,702.9977565215955,2.961185700061082,14.645786594199906,0.96547855,-8.02561048125,-3.235151624145834,False,2.187
mp-1212039,K8 Ce4 Br20,32,Orthorhombic,62,1049.599786753922,3.909814700294259,32.79999333606006,2.0845646,-4.225367083437499,-2.177314334624998,False,0.16340000000000002
mp-1212138,K8 Ce4 Cl20,32,Orthorhombic,62,901.651565800478,2.914083815020952,28.176611431264938,2.67784452,-11.638416859375,-2.433497969375,False,0.3104
mp-1206010,K2 Ce1 F6,9,Hexagonal,189,135.9449252861673,4.059012457943341,15.104991698463031,0.64083862,-5.846001343333332,-3.6590231693888873,False,2.1176
mp-21542,K4 Ce2 Ta10 O30,46,Tetragonal,127,637.8923282678847,7.096452020677534,13.867224527562712,4.28471291,-9.506416671304349,-3.34321049287681,False,0.048100000000000004
mp-21807,K8 Co8 S12 O48,76,Cubic,198,1020.6801404915085,3.151300090701049,13.43000184857248,1.22025775,-6.587050183815789,-1.938619465499999,False,2.7281
mp-1212556,K8 Co4 Br16,28,Orthorhombic,62,933.7251307983289,3.2491113758684422,33.34732609994032,0.86263058,-3.728340704285713,-1.450634660642856,True,0.972299999999999
mp-23515,K24 Co12 Cl48,84,Orthorhombic,33,2514.536425917414,2.210477015791259,29.934957451397786,0.61619627,-4.1449916148809525,-1.746373419809523,False,0.8932
mp-1206883,K2 Co1 F6,9,Cubic,225,128.4604892654252,3.246094799082266,14.273387696158355,-2.8745351,-4.787270853333333,-2.467351918277778,False,1.1713
mp-1211977,K4 Co2 I8,14,Monoclinic,11,583.5587843763163,3.669308837776349,41.68277031259402,1.0805649,-3.302926054285714,-1.089753679214285,False,0.550999999999999
mp-28890,K8 Co4 O8,20,Monoclinic,14,397.44105063827726,2.826528752635311,19.872052531913862,1.35240871,-5.2823011165,-1.4238854814000002,True,0.16990000000000002
mp-505285,K16 Co8 Si8 O32,64,Orthorhombic,29,963.5091349525557,3.160256216852377,15.054830233633682,2.01024826,-6.65970414609375,-2.33303936915625,True,2.9618
mp-561028,K4 Cr4 O14,22,Monoclinic,15,353.1407675951838,2.76663056728745,16.051853072508354,-1.69242041,-7.037008194772725,-1.927502611090906,False,2.7644
mp-555898,K4 Cr6 Cl4 F12,26,Monoclinic,14,487.65527010754136,2.854069033070838,18.755971927213132,1.09368687,-6.225539101538461,-2.656148201115384,True,2.4339
mp-2047105,K2 Cr1 F6,9,Tetragonal,139,133.3323888511901,3.041088608172981,14.814709872354456,-1.24794583,-5.482909138888889,-2.883031231611111,False,0.703399999999999
mp-866709,K4 Cr2 H4 F16,26,Monoclinic,14,364.7250294986831,2.587802862947539,14.02788574994935,-2.89101094,-5.237681416538463,-2.620993817076924,True,2.0316
mp-561541,K8 Cr4 S4 O28,44,Monoclinic,14,747.1193875549008,2.438210858867951,16.9799860807932,-1.0988838,-6.641745422272728,-2.033575102454545,False,2.4957000000000003
mp-542332,K4 Cu2 C4 O12,22,Orthorhombic,43,305.973434711398,2.841183717134321,13.907883395972636,0.62299651,-6.809888350909091,-1.8547026117727272,False,0.5492
mp-1023132,K4 Cu2 Cl4 F4,14,Orthorhombic,64,299.9998429040761,2.774711380926383,21.428560207434007,0.16543814,-4.11356211,-2.129742614928571,False,0.585299999999999
mp-6598,K4 Cu2 P8 O24,38,Monoclinic,9,553.479437259142,2.745949301144008,14.565248348924788,0.98514228,-7.080464972105263,-2.480498010161653,False,0.8983000000000001
mp-559644,K8 Cu4 P12 S36,60,Monoclinic,14,1617.8343042651254,2.1482427822609482,26.963905071085424,2.77683354,-4.827850729333334,-0.83761054272857,False,1.9627
mp-556074,K2 Cu3 Se4 O12,21,Triclinic,2,331.5064122238839,3.890381941039665,15.786019629708758,1.78850694,-5.516233630952381,-1.329588991613095,False,0.09129999999999901
mp-556787,K8 Cu12 S12 O52,84,Monoclinic,15,1264.0463263369898,3.011044975450619,15.04817055163083,1.18836936,-6.094779654880952,-1.747211501404761,False,0.1405
mp-15684,K4 Cu2 As2,8,Orthorhombic,63,222.25344585967454,3.237559418185954,27.781680732459318,1.65357036,-3.0929830075,-0.3349658455,False,1.0674
mp-1110871,K2 Cu1 Bi1 Cl6,10,Cubic,225,286.6215497470162,3.264289768337317,28.66215497470162,1.8617180100000001,-3.735855810999999,-1.60153208845,False,1.161699999999999
mp-571440,K8 Cu4 Br12,24,Orthorhombic,62,719.33625627236,3.5222485168018363,29.97234401134833,0.9455239,-3.39987163375,-1.521074013666666,True,1.901799999999999
mp-569952,K8 Cu4 Cl12,24,Orthorhombic,62,615.9117254140108,2.6755938053235493,25.662988558917117,1.50299184,-8.516120232083333,-1.626013471249999,False,2.052
mp-8388,K4 Cu2 F8,14,Orthorhombic,64,214.23004061424186,3.375432189913843,15.302145758160133,0.2067076,-4.541260167142857,-2.538780793499999,False,0.382399999999999
mp-8446,K4 Cu2 P2,8,Orthorhombic,63,208.92814413403624,2.745463209188628,26.11601801675453,2.14619529,-8.39794020875,-0.42659016261904803,False,1.1421000000000001
mp-1105938,K2 Dy4 Cu4 S9,19,Monoclinic,12,407.82752497395046,5.174952404792967,21.46460657757634,4.6376356,-5.568967555263158,-1.654319958087716,False,0.8801999999999991
mp-977368,K2 Dy4 Cu4 Se9,19,Monoclinic,12,459.5288531125418,6.117846197940607,24.18572911118641,3.33299183,-5.111926102105263,-1.501596021171599,False,0.7292999999999991
mp-1212263,K8 Eu4 F20,32,Orthorhombic,62,522.6407884236385,4.132311395776761,16.332524638238702,-1.9182411,-6.2034419634375,-3.438427809000001,True,0.15880000000000002
mp-628804,K8 Eu4 Si4 Se20,36,Monoclinic,14,1072.132434828185,4.045800783984498,29.78145652300514,3.41544887,-5.286586644722222,-1.347061447079861,False,0.339
mp-619092,K8 Fe8 As8 O36,60,Orthorhombic,62,925.3510025008782,3.472166827492609,15.422516708347969,0.65888728,-6.748242159166667,-1.876597094133334,False,1.8765
mp-1205367,K4 Fe2 F10,16,Monoclinic,12,235.71358825376393,3.226960904122503,14.732099265860246,-2.36012479,-5.442513710781251,-2.90476089446875,False,2.9703
mp-19320,K8 Fe4 O16,28,Orthorhombic,62,453.0861074901879,2.903217051962533,16.18164669607814,-0.817672499999999,-5.7895104321428565,-1.428852621357141,False,1.6183
mp-15432,K16 Ga16 As24,56,Monoclinic,14,1468.933679724094,4.00091457466435,26.230958566501677,1.706355579999999,-3.645243426964285,-0.45534355724999903,False,1.670399999999999
mp-15433,K16 Ga16 Sb24,56,Monoclinic,14,1799.2208760030658,4.303932943483237,32.12894421434046,2.62387369,-3.38773120267857,-0.42974045832142604,False,1.1651
mp-10973,K8 Ga12 Cu4 Se24,48,Monoclinic,15,1313.6620051296277,4.169716117443468,27.367958440200578,1.5602132,-4.073257994375,-1.038116073630208,True,1.5668000000000002
mp-1112284,K2 Ga1 Ag1 F6,10,Cubic,225,163.72038367477631,3.750487051014523,16.372038367477632,-0.44684764,-4.645780843,-2.684092103366666,False,2.243
mp-15415,K16 Ga8 As16,40,Monoclinic,14,1266.7962347412029,3.122502252029281,31.669905868530073,1.08203007,-3.404209366000001,-0.47799325940000004,False,1.0207
mp-15417,K16 Ga8 P16,40,Monoclinic,14,1166.1299135323954,2.390763184464388,29.153247838309888,1.6087396200000001,-3.678166350249999,-0.453809846507141,False,1.2309
mp-30077,K16 Ga8 Sb16,40,Orthorhombic,62,1451.7841978891142,3.58180368106706,36.29460494722785,2.44500143,-3.198759431749999,-0.488991842149999,False,1.215199999999999
mp-1195504,K8 Gd4 B20 H80,112,Monoclinic,11,1265.6496578692152,1.625104351372146,11.300443373832278,-0.61474058,-4.632612271785715,-0.43121408197619004,False,2.5191
mp-1199482,K8 Gd8 Sb8 Se36,60,Monoclinic,12,1747.8917918181535,5.118184116149749,29.13152986363589,2.56654616,-5.996821729500001,-1.32107574920625,False,0.9272
mp-1212034,K8 Gd4 Cl20,32,Orthorhombic,62,869.7984411763591,3.151643887115392,27.181201286761222,1.76112116,-13.18079370875,-2.40632775125,False,2.5725
mp-642655,K8 Gd4 F20,32,Orthorhombic,62,518.7304791402975,4.231147025643202,16.210327473134296,-0.6541292,-6.959812918125,-3.7212974730625,False,0.242399999999999
mp-561132,K4 Ge4 Pb2 S12,22,Monoclinic,15,633.2082364598252,3.267886836652918,28.782192566355693,1.603421459999999,-4.642275152727273,-1.001220640863635,False,2.211299999999999
mp-541878,K8 Ge8 S20,36,Monoclinic,15,1002.5561907123564,2.542770396423353,27.848783075343235,0.76040037,-4.617347309166668,-1.039503643277778,True,2.3273
mp-29388,K8 Ge8 Se20,36,Monoclinic,11,1191.9198515966164,3.445441224556699,33.10888476657268,-0.23841107,-4.17385288888889,-0.95292482846875,False,1.9498000000000002
mp-8930,K4 Ge2 As4,10,Orthorhombic,72,309.828733732268,3.223010005708031,30.982873373226802,1.701105179999999,-3.631489607000001,-0.386287133900002,False,0.8442000000000001
mp-9692,K4 Ge2 Se6,12,Triclinic,2,384.1135358257067,3.352230530930631,32.009461318808896,0.09870696,-3.992296728333336,-1.096713106088544,False,1.7264