material_id,composition,nsites,crystal_system,space_group,volume,density,density_atomic,efermi,energy_per_atom,formation_energy_per_atom,is_gap_direct,band_gap
mp-19280,Na2 Cr6 O16,24,Monoclinic,12,339.80513620095917,3.000196593496474,14.158547341706631,-0.41750598,-7.727487842916666,-1.903775240531608,False,1.791
mp-646192,Na4 Cr4 F24,32,Orthorhombic,62,409.9002080005814,3.062233231964267,12.80938150001817,-3.01307243,-5.3734581053125,-2.563722792984914,False,1.374
mp-578604,Na1 Cr1 O2,4,Trigonal,166,40.701079460716684,4.36480371578805,10.175269865179171,2.92046056,-7.478484044375,-2.255811479719828,False,2.891
mp-17142,Na4 Cr4 P8 O28,44,Monoclinic,14,526.2723375949221,3.141769921996756,11.960734945339139,1.71457447,-7.783384039090908,-2.650525645060455,False,2.7876000000000003
mp-5693,Na1 Cr1 S2,4,Trigonal,166,71.22486759498263,3.243352266192656,17.806216898745657,4.10969451,-6.0097346,-1.1918627540948261,False,0.9908999999999991
mp-3332,Na1 Cr1 Se2,4,Trigonal,166,82.74373277808579,4.6740614883439395,20.685933194521446,3.33552856,-5.536158535,-1.039510734016702,False,0.780799999999999
mp-554430,Na2 Cu2 I6 O18,28,Triclinic,2,437.2375238977757,4.642758771765293,15.61562585349199,3.4859362,-4.904452479642857,-1.008408598312808,True,0.056999999999999
mp-17869,Na4 Cu4 F12,20,Triclinic,2,230.8146690812994,4.130392555139203,11.54073345406497,0.90058427,-7.0708840335,-2.3130719495,False,0.080899999999999
mp-7469,Na4 Cu4 O4,12,Tetragonal,139,177.46352725716636,3.837715995425951,14.78862727143053,2.01292192,-4.689022076666666,-1.226059258793103,False,1.2722
mp-4541,Na1 Cu1 O2,4,Monoclinic,12,45.30668960996492,4.344419879857045,11.32667240249123,2.07426012,-5.19672806875,-1.362515704094827,False,0.49970000000000003
mp-7433,Na2 Cu2 Se2,6,Tetragonal,129,111.36096815326336,4.935520852660742,18.560161358877227,3.79519351,-10.296944835,-0.7227659013541671,True,0.04769999999999901
mp-22614,Na2 Fe2 Ge4 O12,20,Monoclinic,15,245.30420550006195,4.333860490983809,12.265210275003097,1.01097266,-6.920233539500001,-2.045677166637932,False,1.5846
mp-1102092,Na4 Fe4 S8 O32,48,Monoclinic,12,620.3368260587436,2.901260061136968,12.923683876223825,0.894954399999999,-6.757144760625,-1.951132330323275,True,2.0944
mp-880385,Na4 Fe4 Se8 O24,40,Orthorhombic,62,561.0261806456218,3.939540328833898,14.025654516140545,1.42861492,-6.1949088945,-1.545775797106681,False,2.278299999999999
mp-561519,Na2 Fe2 Se4 O16,24,Monoclinic,12,339.21657075280996,3.571061237877764,14.134023781367082,0.266571799999999,-6.121679400833333,-1.422741652172234,False,1.9104
mp-21867,Na4 Fe4 Si8 O24,40,Monoclinic,15,446.9142563275168,3.433214502583936,11.17285640818792,2.23514425,-7.764436356500001,-2.729421948637932,False,1.835799999999999
mp-556373,Na8 Fe8 Te16 O48,80,Orthorhombic,61,1150.1718696087762,4.966795487272759,14.377148370109703,4.37660929,-6.251191343875,-1.672579363346264,True,2.1497
mp-1210192,Na4 Fe4 Br16,24,Orthorhombic,62,775.7412598231787,3.411668827088438,32.32255249263245,-0.2843525,-3.951194876249999,-1.224606854813217,True,1.0155
mp-27514,Na4 Fe4 Cl16,24,Orthorhombic,19,621.732096610405,2.3572376739501593,25.905504025433544,-0.12894212,-4.398466679999999,-1.530814481896551,False,0.2252
mp-1078217,Na2 Fe2 F6,10,Orthorhombic,63,115.10438847491389,3.919068409713153,11.51043884749139,0.49926876000000003,-5.848301255000001,-2.737641432275862,False,2.2462
mp-18455,Na4 Fe4 F16,24,Monoclinic,14,300.57783793893014,3.421390995759937,12.524076580788757,-2.38289709,-5.700511595416667,-2.789319680646551,True,2.953999999999999
mp-19359,Na1 Fe1 O2,4,Trigonal,166,42.09905783092161,4.371676734888313,10.524764457730402,2.52669208,-6.7247904325,-1.797874432844827,False,1.9918999999999991
mp-752506,Na2 Fe2 P4 O14,22,Monoclinic,4,277.4848635396679,3.025375104916984,12.612948342712178,0.9881261100000001,-7.528462905454545,-2.503152353242273,False,2.5578000000000003
mp-19226,Na4 Fe4 P4 O16,28,Orthorhombic,62,304.77983691752075,3.787807932755763,10.88499417562574,2.91463893,-7.413970674642856,-2.411247884074594,False,1.2607
mp-570622,Na16 Ga48 Se80,144,Orthorhombic,19,3832.9755076845972,4.34582283116457,26.617885470031926,2.05303721,-4.093941713958333,-0.9933232434692281,True,1.8605
mp-29462,Na4 Ga12 Te20,36,Trigonal,155,1134.95749761858,5.092464285458583,31.526597156071666,3.56754119,-3.608045371111109,-0.7033188919125141,True,1.2076
mp-3338,Na4 Ga4 O8,16,Orthorhombic,33,209.7742886267484,3.948785796431041,13.110893039171774,0.09320264,-5.783118308124999,-2.216683605344827,True,2.8582
mp-1094098,Na2 Ga2 Te4,8,Tetragonal,122,271.5036237281028,4.255727693247973,33.93795296601285,1.793990089999999,-3.4601416475,-0.79603450055316,True,1.5786
mp-29657,Na16 Ge16,32,Monoclinic,14,796.9375432905721,3.188143796839254,24.904298227830377,1.2760732,-8.932604649375,-0.21452557437499903,True,0.665199999999999
mp-14433,Na2 Ge4 N6,12,Orthorhombic,36,146.35601754020692,4.771850848615998,12.196334795017243,4.0458762,-6.317103949999999,-0.383335662729884,False,2.3402
mp-23850,Na4 H8 N4,16,Orthorhombic,70,178.27052343055513,1.453555614526926,11.141907714409696,-0.64672542,-4.555772731875,-0.438189881594827,False,1.9459
mp-626000,Na2 H2 O2,6,Monoclinic,4,57.96049869081259,2.291794032511912,9.660083115135432,-0.57422397,-4.772884358333333,-1.544601617543103,False,2.9879000000000002
mp-1105143,Na2 In2 Ge4 O12,20,Monoclinic,15,251.90637643099626,4.997762117319644,12.595318821549814,2.2453098,-6.428372814999989,-2.124901188804586,False,2.3627000000000002
mp-559710,Na4 In4 As8 O28,44,Monoclinic,15,589.9050661399469,4.499904213892476,13.40693332136243,1.29497305,-6.262359146590902,-1.8917349082314452,False,2.3567
mp-28570,Na4 In4 I16,24,Monoclinic,14,1059.0065530387103,4.048150607339759,44.1252730432796,0.271133299999999,-2.732236906666666,-1.032746076340995,False,2.478999999999999
mp-5175,Na1 In1 O2,4,Trigonal,166,49.5053026102216,5.695762417105993,12.3763256525554,3.6758438,-5.478102092499999,-1.978897959511493,False,1.9142000000000001
mp-20289,Na1 In1 S2,4,Trigonal,166,83.6359557073411,4.009346842222601,20.908988926835274,3.689782799999999,-11.6430967325,-1.089904453906248,False,1.8377000000000001
mp-22473,Na1 In1 Se2,4,Trigonal,166,96.18797473292786,5.105290087782719,24.046993683231964,3.04187161,-14.7006699675,-1.009197114531248,False,1.019199999999999
mp-1220784,Na4 In4 Sn8,16,Orthorhombic,19,480.4636115684226,5.187326197117249,30.028975723026413,5.05084282,-19.123045035,-0.21426040749999903,False,0.6527000000000001
mp-22483,Na2 In2 Te4,8,Tetragonal,140,254.28877528651236,5.132784596028324,31.786096910814045,3.96642617,-3.3711866025,-0.7743100253448261,False,0.6416000000000001
mp-5077,Na1 Li2 Sb1,4,Cubic,225,78.45712262019325,3.357429399603298,19.61428065504831,3.71593126,-9.21655205,-0.7055747683333331,False,0.6796000000000001
mp-505381,Na1 Li3 H8 N4,16,Tetragonal,82,153.088303310436,1.170417930577803,9.56801895690225,-0.73734953,-4.78137354125,-0.557440299461206,False,2.567599999999998
mp-8452,Na2 Li2 S2,6,Tetragonal,129,104.15187051878621,1.976851617557677,17.358645086464367,1.39127935,-3.829716026666666,-1.366714955737547,False,2.264199999999999
mp-28603,Na4 Li4 Se4,12,Orthorhombic,62,231.80249747841356,3.120197208374006,19.316874789867796,0.99159548,-8.1261298775,-1.371980806076387,True,2.4375
mp-8754,Na4 Li4 Te4,12,Orthorhombic,62,292.20348448460896,3.580874431287207,24.350290373717414,2.24830202,-3.260567211666667,-1.129250698793103,True,2.284
mp-1220972,Na1 Li1 Zn1 S2,5,Trigonal,156,93.7076125766424,2.825872675120677,18.74152251532848,3.35318957,-3.824695839999999,-1.267274561942527,True,1.8297999999999992
mp-1210333,Na2 Mg4 S6 O24,36,Trigonal,167,490.805768400802,2.434532570442861,13.633493566688944,0.03919561,-6.481564818055556,-2.237494175215517,False,0.000399999999999
mp-555794,Na2 Mg4 V6 O20,32,Triclinic,2,401.633983555356,3.178722818240892,12.551061986104875,0.42332233,-7.6696321071875,-2.5862577903987063,False,2.8352999999999993
mp-5962,Na2 Mg2 As2,6,Tetragonal,129,136.45331948793782,2.974571179785655,22.742219914656303,2.33059048,-8.266813655,-0.7864752741666661,False,0.9547999999999991
mp-7090,Na2 Mg2 Sb2,6,Tetragonal,129,164.59947365719816,3.410971402850694,27.433245609533028,3.3123485,-2.9236346500000012,-0.5565706387931041,False,1.0359
mp-542710,Na4 Mn8 O16,28,Orthorhombic,62,278.6511271444934,4.692598494330811,9.951825969446192,3.41722025,-7.614961488214285,-1.978162147820196,False,0.4046
mp-1210122,Na2 Mn8 As6 O24,40,Monoclinic,15,518.996997383756,4.220158388218096,12.9749249345939,3.84425185,-7.537054942999999,-1.9682708627801722,False,1.1152
mp-17876,Na4 Mn4 As4 O16,28,Orthorhombic,62,371.52159582560296,3.876845305719839,13.268628422342962,2.20806724,-7.017184559642857,-2.022084184901477,True,2.0178
mp-18641,Na3 Mn3 Cr3 F18,27,Trigonal,150,370.10817841158547,3.283061304282934,13.707710311540202,0.12327284000000001,-6.5646253688888905,-3.049081169923372,False,2.2911
mp-560242,Na4 Mn4 F12,20,Orthorhombic,62,249.65099501672162,3.589730569614404,12.482549750836082,0.90554628,-6.213123987999999,-2.964065348862068,True,2.7474
mp-554517,Na2 Mn2 F8,12,Monoclinic,14,151.86163345622754,3.366123977941208,12.655136121352294,-1.41466323,-5.9318580516666675,-2.905333789885058,False,2.0519
mp-1209999,Na3 Mn3 Fe3 F18,27,Trigonal,150,373.07574404506147,3.308340477994067,13.817620149817092,-0.85393867,-6.242375231111111,-2.858278394367815,False,2.4364
mp-1205831,Na1 Mn1 I1 O6,9,Trigonal,149,110.681718520577,4.513281771171157,12.297968724508555,1.1868053,-6.061087736666667,-1.426030546034483,False,2.0015
mp-18957,Na1 Mn1 O2,4,Monoclinic,12,42.934458863710745,4.251536930987024,10.733614715927686,2.94610666,-7.125566535625,-2.025652015452586,False,1.222999999999999
mp-1193468,Na4 Mn4 V4 O16,28,Orthorhombic,62,363.593228223254,3.523311447592582,12.985472436544786,1.84784374,-7.934464316785714,-2.308823436687192,False,2.3623
mp-1220983,Na1 Mo2 P4 O14,21,Triclinic,1,286.84327803107374,3.257803432897804,13.659203715765416,2.0619942,-7.966064935714286,-2.539094975235749,False,1.1965
mp-1013843,Na4 Mo8 P8 O36,56,Orthorhombic,62,776.9366306494229,3.597588585299477,13.873868404453981,1.9454356800000001,-8.051297555357143,-2.451610620047502,False,1.807599999999999
mp-1210358,Na2 Mo12 O34,48,Monoclinic,11,691.3220944149449,4.182414589712705,14.402543633644685,2.18828289,-8.257496319166666,-1.985373047349137,False,0.5921999999999991
mp-622602,Na8 Mo8 As8 O48,72,Orthorhombic,29,989.2011937427573,3.892462300294932,13.738905468649406,0.26163675000000003,-7.089072503333333,-1.917377008764368,False,2.6992000000000003
mp-578610,Na1 Mo1 O2,4,Trigonal,166,47.2610994069084,5.302940234159042,11.8152748517271,3.99394962,-7.4089926675,-1.888169442844827,False,2.380499999999999
mp-21798,Na8 Mo8 P8 O48,72,Monoclinic,14,968.2309951205553,3.373793604397919,13.447652710007713,0.6062574900000001,-7.599519325277778,-2.345007053724685,False,2.7169
mp-4531,Na2 N2 O6,10,Trigonal,167,120.00620150203474,2.352161255429685,12.000620150203474,-0.51481965,-6.267973277,-1.363196969275862,False,2.9451
mp-6181,Na2 Nb2 Cu4 S8,16,Orthorhombic,40,397.41352068871095,3.102421146688985,24.838345043044434,1.88007495,-5.520923866875,-0.9965641882974121,False,1.7198
mp-29162,Na2 Nb20 O36,58,Monoclinic,14,725.6625049090478,5.675198728649693,12.511422498431859,4.13928268,-9.383606921034483,-2.782983842806183,False,0.1761
mp-672212,Na1 Nb13 O33,47,Triclinic,1,695.0198482830215,4.202006491714734,14.787656346447266,0.46334112,-9.31264069425532,-3.016015173752752,False,1.6963
mp-560032,Na4 Nb8 As4 O32,48,Monoclinic,14,659.4305884809257,4.147068957287623,13.738137260019286,0.56504114,-8.057428812916667,-2.5742503603232763,False,2.700199999999999
mp-560016,Na4 Nb8 P4 O32,48,Monoclinic,4,689.0225229350584,3.545306044573179,14.354635894480383,1.1398217,-8.448699555833333,-2.903408520501847,False,1.994399999999999
mp-557436,Na4 Nb8 P4 S40,56,Monoclinic,15,1407.34727975183,2.645003870783886,25.13120142413982,2.80606039,-5.925392900535714,-1.043721467751583,True,1.315599999999999
mp-559336,Na2 Nb6 Te8 O32,48,Monoclinic,11,715.4853794519887,4.957810965826818,14.905945405249765,2.64084564,-7.374246073541666,-2.233152925543582,False,2.1321
mp-623854,Na2 Nb6 O16,24,Orthorhombic,59,346.71803846588824,4.115969643201572,14.446584936078677,0.01455191,-8.894425686249999,-2.9586486913649424,False,2.4842
mp-28178,Na4 Nb4 Cl24,32,Monoclinic,14,856.3999448368335,2.548699990030615,26.762498276151046,-1.31491859,-9.6982993715625,-1.5466882959375,False,2.2152
mp-1030657,Na16 Nb16 N32,64,Orthorhombic,61,1022.6251780967384,3.738885898835273,15.978518407761538,1.37770346,-7.92741738734375,-0.897522060188578,True,2.2814
mp-3744,Na2 Nb2 O4,8,Hexagonal,194,88.2693972494368,5.564450391300988,11.0336746561796,5.56852673,-7.857723646249999,-2.522986689094827,False,1.378099999999999
mp-4514,Na2 Nb2 O6,10,Trigonal,161,121.69003756668431,4.472888253079711,12.169003756668431,1.39056418,-8.102204531999998,-2.844822765275861,False,2.5048
mp-7937,Na2 Nb2 S4,8,Hexagonal,194,143.95860343944022,4.153144678355541,17.994825429930028,5.66633249,-6.383159698750002,-1.453223460344829,False,0.6250999999999991
mp-1210002,Na2 Nb2 S12,16,Monoclinic,9,346.70674787021386,2.9530500788681042,21.669171741888366,4.89248972,-5.5411721937500005,-1.007024290797413,False,1.6715
mp-7939,Na2 Nb2 Se4,8,Hexagonal,194,163.87637439545435,5.549090460693393,20.484546799431794,4.74149725,-15.41442783125,-1.184083910781248,False,0.5013999999999991
mp-1190450,Na2 Nb2 Se4 O14,22,Orthorhombic,36,334.37346335118343,3.831977619992375,15.198793788690155,0.71274422,-6.803546222727272,-1.9789484219151632,False,2.9067
mp-545399,Na1 Ni1 I1 O6,9,Trigonal,149,114.81056317021485,4.405288871699229,12.756729241134984,1.76968596,-5.294950883333333,-1.035657982931034,False,1.7121
mp-19149,Na1 Ni1 O2,4,Monoclinic,12,38.89509783640153,4.853397000091615,9.723774459100383,3.8003646,-5.587576730625,-1.333131863469827,False,0.42040000000000005
mp-1545216,Na4 O8,12,Monoclinic,14,157.12869280799592,2.324481057510179,13.09405773399966,0.59711582,-4.65469398,-0.90881305045977,False,0.7083
mp-7440,Na8 P8,16,Orthorhombic,19,336.7894842546889,2.128535623620998,21.049342765918055,3.32965515,-6.782991560625,-0.49986311961309404,False,0.8684000000000001
mp-1194653,Na2 P30,32,Triclinic,2,719.1923251194828,2.2516161792900222,22.474760159983838,3.72665819,-8.7582551609375,-0.096047332790178,False,1.4966
mp-1220996,Na1 P4 Ru2 O14,21,Triclinic,1,264.1592642474459,3.602054803594901,12.579012583211709,3.0281618,-7.5454904080952385,-2.268163073330987,False,0.0097
mp-1195785,Na8 P56,64,Tetragonal,142,1522.9261067283921,2.091801571441959,23.795720417631127,3.02766051,-8.51324551984375,-0.190906175572916,True,1.7429000000000001
mp-559446,Na2 P2 Pd2 S8,14,Tetragonal,140,345.9457812599012,2.770976759804617,24.7104129471358,1.90949107,-4.919682133571428,-0.849608650146023,False,1.160699999999999
mp-1189520,Na4 P4 S12,20,Monoclinic,11,485.66588787613205,2.053626689443856,24.283294393806603,1.7347015300000002,-4.6998153905,-0.865360789204432,False,1.988
mp-1210084,Na1 Rh1 S2 O8,12,Monoclinic,12,150.41370181347088,3.510886354441218,12.534475151122573,3.18858074,-6.469422521666666,-1.755552869698275,False,1.2372
mp-8830,Na1 Rh1 O2,4,Trigonal,166,42.850923866535034,6.118637517373269,10.712730966633758,4.27006891,-6.109662107500001,-1.4591744428448281,False,1.377399999999999
mp-1029313,Na2 Ru2 N2,6,Hexagonal,186,90.47622756787764,5.067955908196289,15.079371261312941,4.1871017,-6.390335845,-0.072202157126437,False,0.4093
mp-2400,Na4 S4,8,Hexagonal,194,174.63099763463234,2.094029042503947,21.828874704329042,2.01368961,-6.80337951,-1.00378968390625,True,1.2348
mp-12180,Na8 S16,24,Tetragonal,122,535.223051008419,2.162325110475751,22.300960458684127,2.02308006,-7.249936484583333,-0.7052102397916661,False,2.0185
mp-7944,Na8 Sb8,16,Monoclinic,14,477.14458751880505,4.030017785940886,29.821536719925316,3.48942018,-15.0839714725,-0.448723322499999,True,0.6041000000000001
mp-2741573,Na2 Sb10 O26,38,Orthorhombic,63,486.2220660732918,5.736024194366857,12.79531752824452,3.83081834,-12.637192672368421,-1.600717723421052,True,1.679599999999999
mp-766341,Na2 Sb10 O26,38,Orthorhombic,40,507.0580106600823,5.50032042921633,13.343631859475849,3.89442983,-6.416894693947368,-1.874251533756805,True,1.0634
mp-28177,Na2 Sb2 Cl12,16,Tetragonal,84,439.1649682892274,2.703262959484813,27.44781051807671,-0.73617684,-9.377713279375,-1.104572068749998,False,2.0509
mp-4482,Na2 Sb2 O6,10,Trigonal,148,128.83098377675014,4.9687664196043855,12.883098377675015,2.19702076,-6.119753534000001,-2.056832527275863,False,2.7012
mp-5414,Na2 Sb2 S4,8,Monoclinic,15,193.50713258091452,3.584911961493707,24.188391572614314,3.78629976,-12.1301585925,-0.7950349764062511,False,0.8857
mp-1220879,Na1 Sb1 Se2,4,Trigonal,166,102.88752122861274,4.884897314723898,25.721880307153185,3.48632428,-15.2006476825,-0.727243492031249,False,0.6374999999999991
mp-1220883,Na1 Sb1 Te2,4,Trigonal,166,126.85507391371195,5.235361866714497,31.713768478427987,4.30227311,-3.589129464999999,-0.6497960136781591,False,0.658899999999999
mp-999460,Na1 Sc1 S2,4,Trigonal,166,80.19591520326138,2.734763085593306,20.048978800815345,2.95027384,-9.76013316,-2.001966637656251,False,1.678999999999999
mp-15668,Na4 Se4,8,Hexagonal,194,201.38756569723697,3.362503025133278,25.17344571215462,1.39102012,-9.93798829125,-1.000117890781251,True,0.49420000000000003
mp-15514,Na8 Se16,24,Tetragonal,122,636.4851691485202,3.775833329419609,26.52021538118834,1.36652948,-11.414884175416667,-0.6857838314583321,False,1.1815
mp-2402,Na8 Si8,16,Monoclinic,15,381.46325253337227,1.7786768064981051,23.841453283335767,2.336633469999999,-6.238333850625,-0.069361268125,False,1.1286
mp-11051,Na16 Sn16,32,Tetragonal,142,946.2322969677579,3.978693238379946,29.569759280242433,3.82085077,-14.420799985624999,-0.265617810625,False,0.34289999999999904
mp-12433,Na2 Sn2 N2,6,Hexagonal,186,108.2263388748383,4.778073024549201,18.037723145806385,4.74744335,-4.75781496,-0.19462483379310302,False,0.917899999999999
mp-29529,Na2 Sn2 P2,6,Hexagonal,186,152.99095454013414,3.748341139776323,25.49849242335569,4.22201162,-12.820948471666666,-0.38346825099206205,False,0.5826
mp-620652,Na4 Sr8 Al4 P12,28,Monoclinic,12,679.9228216620453,3.107832734340008,24.28295791650162,3.95434646,-4.409751599642857,-0.8785268332582681,True,0.31220000000000003
mp-1106050,Na2 Sr4 I2 O12,20,Monoclinic,14,271.1166411646844,5.158693879228861,13.55583205823422,5.05298541,-5.81219865050001,-2.21836309013794,False,2.563
mp-6233,Na2 Sr6 Ru2 O12,22,Trigonal,167,318.6786547754795,5.032663173171901,14.485393398885433,2.97807575,-6.662409879999999,-2.536848641943573,True,0.5002
mp-10461,Na2 Sr6 Sb2 O12,22,Trigonal,167,331.05213502556666,5.052120979105783,15.047824319343938,2.5513428400000002,-6.392569182727272,-2.734771699216301,False,2.9095
mp-10811,Na1 Sr4 B3 N6,14,Cubic,229,218.7515188809925,3.719148763204932,15.625108491499464,2.35374992,-6.802837465714285,-1.218603542777094,False,1.9666000000000001
mp-9775,Na3 Sr3 As3,9,Hexagonal,189,243.24829841599964,3.799600105432437,27.02758871288885,2.28034198,-12.19333814888889,-1.054213939722223,True,0.806999999999999
mp-17259,Na4 Sr4 Cr4 F24,36,Monoclinic,14,522.7300933259909,3.514616422981948,14.520280370166413,0.85201922,-6.146126902777778,-3.460536837375479,False,2.0585
mp-13275,Na3 Sr3 P3,9,Hexagonal,189,228.24213439099114,3.090204867365227,25.36023715455457,2.58578418,-10.200946298888889,-0.963640314880952,True,1.2357
mp-1210039,Na4 Sr4 V4 F24,36,Orthorhombic,19,550.5351343140728,3.324385382001378,15.292642619835355,-0.19878495000000002,-6.156180481666666,-3.533828349597701,True,2.5448
mp-1202184,Na1 Tc12 Br25,38,Triclinic,2,1148.816954242178,4.620459484152378,30.232025111636265,1.57478563,-5.216546388947369,-0.832518718062613,False,0.965499999999999
mp-28478,Na12 Te36,48,Trigonal,165,1583.040369588561,5.107865429037708,32.980007699761686,4.00844872,-20.430028077291666,-0.47606470229166803,False,0.5092