material_id,composition,nsites,crystal_system,space_group,volume,density,density_atomic,efermi,energy_per_atom,formation_energy_per_atom,is_gap_direct,band_gap
mp-549127,Ho1 Bi2 Cl1 O4,8,Tetragonal,123,136.85991564229317,8.278940385967152,17.107489455286647,3.64886018,-6.72239778625,-2.470130923125,False,1.370999999999999
mp-551101,Ho1 Bi2 I1 O4,8,Tetragonal,123,150.17692026497537,8.556000610459362,18.77211503312192,4.30774963,-6.53935935125,-2.32765876125,False,1.391099999999999
mp-977375,Ho2 Br6,8,Hexagonal,194,321.2850758539566,4.182730110159792,40.16063448174457,-1.656325209999999,-4.613866801250001,-2.23673703375,False,2.8409
mp-1191543,Ho4 Cr4 B16,24,Orthorhombic,55,232.13960648816357,7.444195377418427,9.672483603673482,6.3915491,-7.49854261375,-0.670493610694443,False,0.167799999999999
mp-756834,Ho4 Cr4 O12,20,Orthorhombic,62,216.86995599622566,8.113944214971221,10.843497799811283,3.55456867,-9.045650313500001,-3.2267283235,False,2.4964
mp-19076,Ho2 Cr2 O8,12,Tetragonal,141,155.46764169753553,6.001059832937755,12.955636808127961,1.8449463,-8.453688110833333,-2.7799262849999993,False,0.296799999999999
mp-1105351,Ho2 Cr2 Te2 O12,18,Trigonal,163,227.5004003263236,6.430804968163029,12.6389111292402,3.22534128,-7.775656423333334,-2.544345439074073,False,2.6338
mp-1224006,Ho2 Cu2 Pb2 S6,12,Orthorhombic,36,265.0440594958999,6.664500286811917,22.087004957991656,4.68689957,-5.485938843333333,-1.348503525416664,False,1.599599999999999
mp-6244,Ho4 Cu4 Pb4 Se12,24,Orthorhombic,62,588.2064677148177,7.594653273280197,24.508602821450737,4.27200406,-5.052669779583334,-1.23645850658854,False,1.1844000000000001
mp-12453,Ho4 Cu4 S8,16,Orthorhombic,62,325.6315710928154,5.968514955272175,20.351973193300964,4.07225559,-16.540727205625,-1.59119268578125,False,1.607299999999999
mp-24012,Ho1 H1 Se1,3,Hexagonal,187,48.84804614782874,8.325064360643623,16.282682049276247,4.0839083,-18.537613716666666,-1.654941534270833,False,1.4981
mp-864657,Ho2 I6,8,Hexagonal,194,412.74130921683786,4.39046303278712,51.59266365210473,-0.75076398,-3.9337361275000013,-1.641306799999999,False,2.2181
mp-510225,Ho4 Mn8 O20,32,Orthorhombic,55,345.59865596409134,6.819064983043372,10.799957998877854,3.18023919,-8.61115357968747,-2.653464195420227,False,1.155199999999999
mp-2899517,Ho6 Mn6 O18,30,Orthorhombic,36,368.7595580414855,7.237283256019215,12.291985268049517,4.38638456,-8.789214622000001,-3.068499067586207,True,0.37659999999999905
mp-1193901,Ho4 Mo4 Br4 O16,28,Triclinic,2,503.665412641903,5.337984855438695,17.988050451496537,1.50266809,-7.858712898571428,-2.591267165714285,False,1.8564
mp-558005,Ho2 Mo2 Cl2 O8,14,Monoclinic,12,247.41069322661878,4.836710623701364,17.672192373329914,0.47391304,-7.9824773985714295,-2.684803627857142,False,2.7162
mp-883,Ho1 N1,2,Cubic,225,28.612982912956948,10.384513669018196,14.306491456478474,3.87231936,-23.06471171,-2.059664416874998,False,0.08749999999999901
mp-1018139,Ho1 Ni1 Bi1,3,Cubic,216,65.98018984860511,10.887450358667028,21.993396616201704,6.09030628,-5.417714986666667,-0.661764834999998,False,0.19410000000000002
mp-4174,Ho1 Ni1 Sb1,3,Cubic,216,62.23642711833167,9.215232727566153,20.745475706110557,6.53564665,-5.798447013333335,-0.962841218333332,False,0.29199999999999904
mp-1225006,Ho2 P4 H10 O20,36,Triclinic,2,442.57991094034736,2.9408674608877132,12.293886415009649,1.46237186,-6.781074974722222,-2.231960043640872,False,2.1728
mp-9851,Ho2 P10,12,Monoclinic,11,241.56909478816272,4.396580194129317,20.13075789901356,5.5555663,-13.611999475,-0.630045229146825,False,0.1063
mp-1190574,Ho8 P8 S8,24,Orthorhombic,62,469.8890472747517,6.444952379008631,19.578710303114654,5.38566451,-18.41887515375,-1.779402050679562,False,0.29399999999999904
mp-18532,Ho8 P8 S32,48,Tetragonal,142,1084.44808227161,3.970957252444709,22.59266838065854,3.01666661,-13.536007138541665,-1.198771045912695,False,2.173
mp-1223799,Ho1 Pa1 O4,6,Tetragonal,123,76.338706083066,10.005250263093178,12.723117680511,5.21682314,-9.842689796666667,-4.187053019166665,False,2.4203
mp-17651,Ho4 Pt4 F28,36,Monoclinic,14,494.8386727151315,6.617518177549906,13.745518686531431,-1.11953411,-14.62073598138889,-2.815040818611111,False,2.3045
mp-1212108,Ho4 Rh4 O12,20,Orthorhombic,62,225.4575253306886,9.304718979809337,11.27287626653443,4.46925832,-7.948614022000005,-2.587439952000004,True,0.9605999999999991
mp-10931,Ho2 S2 F2,6,Tetragonal,129,95.13320942562316,7.5402904554460175,15.855534904270527,4.23545661,-18.013631415,-3.332841099270832,True,1.299599999999999
mp-1018731,Ho2 S2 I2,6,Orthorhombic,59,218.69021160815248,4.918814161854199,36.448368601358744,0.69429705,-5.523699721666667,-2.103682505833331,True,2.7205999999999992
mp-769118,Ho4 S4 O4,12,Orthorhombic,64,194.75415349286655,7.264256955679934,16.229512791072214,5.13140068,-7.589274691666667,-3.027941345833331,False,1.190999999999999
mp-1212288,Ho4 Sb4 O16,24,Triclinic,2,296.3676461374059,7.859575752404595,12.348651922391914,3.51868189,-7.622795643749999,-2.869708189583331,False,2.3323
mp-1095263,Ho4 Se4 F4,12,Orthorhombic,62,252.2920341559646,6.9211379820629695,21.024336179663717,2.09836265,-19.9865642175,-3.213586852187499,False,2.8304
mp-30390,Ho1 Sn1 Au1,3,Cubic,216,73.89646865958002,10.79979232212103,24.632156219860008,5.53604028,-4.805832080000002,-0.8454543066666661,False,0.022000000000000002
mp-558875,Ho4 Te8 Cl4 O20,36,Triclinic,2,618.7684955738198,5.749174697961192,17.188013765939438,3.01113721,-6.410302852777778,-2.246676288703702,True,2.9145000000000003
mp-1212131,Ho2 Tl2 W4 O16,24,Monoclinic,15,330.89672244910344,8.681547022595037,13.78736343537931,5.23360995,-8.5452037375,-2.506112064027777,False,2.9276
mp-1007665,Ho1 Tl1 S2,4,Trigonal,166,103.44488421855114,6.957812071768453,25.861221054637785,3.83051319,-5.542250742499991,-1.730783063333324,False,1.4885000000000002
mp-569178,Ho1 Tl1 Se2,4,Trigonal,166,115.24923759424736,7.5965103241484595,28.81230939856184,3.48438652,-30.27675016,-1.605807920781245,False,1.2588
mp-1007663,Ho1 Tl1 Te2,4,Trigonal,166,138.3942710892306,7.49329618539741,34.59856777230765,4.5883009900000005,-4.564459187499992,-1.250518345416658,False,0.7305
mp-18734,Ho2 V2 O8,12,Tetragonal,141,157.7959242827916,5.890318239447263,13.149660356899298,0.70177465,-8.787987294166667,-3.209082368333334,False,2.9805
mp-23261,I8 O20,28,Monoclinic,14,429.70673644895584,5.159777653138838,15.346669158891281,2.22735146,-4.726152101785713,-0.7564620653571411,False,2.7278000000000002
mp-27639,I2 Br2,4,Orthorhombic,63,161.4534882856858,4.254024454784363,40.36337207142145,-0.50101216,-1.934361819999999,-0.35388224499999904,False,1.402299999999999
mp-567998,I8 Cl8,16,Monoclinic,14,599.2621717471073,3.599104824565644,37.45388573419421,-0.32176573,-2.150815592499999,-0.46454095499999903,False,1.852199999999999
mp-1546049,I2 Cl6,8,Triclinic,2,256.8661311901365,3.015914188071446,32.108266398767064,0.95809141,-10.949613095,-0.19561297874999803,False,1.5693000000000001
mp-27729,I2 Cl6,8,Triclinic,2,312.4853440274789,2.479112138530346,39.06066800343486,-0.6928252300000001,-2.431760408749999,-0.66435476,False,1.795999999999999
mp-27988,I2 F14,16,Orthorhombic,41,295.29125934113586,2.922964710438197,18.45570370882099,-3.02993017,-3.557248483749999,-1.692126078749999,False,1.4397
mp-29946,I4 O8 F4,16,Orthorhombic,19,233.37980967516722,5.063208831531403,14.586238104697951,1.38525643,-4.468860322499999,-1.135413572499999,False,2.8952
mp-1204264,In24 Ga8 Ir4 O30,66,Orthorhombic,34,1043.635075011639,7.259070825246485,15.812652651691499,5.20431417,-5.805154673787879,-1.650040963333333,False,1.4187
mp-1029677,In4 C6 N12,22,Trigonal,167,311.38949646709045,3.729761605017047,14.154068021231383,4.21406842,-7.69485469590909,-0.12812647462121102,True,2.2323
mp-27753,In8 P12 S36,56,Monoclinic,14,1319.2539412959757,3.076968305760182,23.558106094570995,2.684057,-10.799353723571429,-0.479467906731504,False,1.4292999999999991
mp-686581,In8 P12 Se36,56,Triclinic,2,1511.7390123730456,4.539578440103723,26.99533950666153,2.36207086,-14.709081817857143,-0.354263833963648,True,0.9617999999999991
mp-1212349,In8 Se12 O48,68,Monoclinic,14,1005.3104916617067,4.350813394148277,14.78397781855451,0.04204422,-5.80636152617647,-1.372148939139092,False,2.3097
mp-1224076,In4 Ag2 S6 Cl2,14,Trigonal,166,337.36145869224197,4.618462104718493,24.097247049445855,3.33344634,-4.109675343571429,-0.877545819642856,True,1.087999999999999
mp-650840,In8 Bi16 Pb16 S52,92,Orthorhombic,55,2383.798806499057,6.439876046022363,25.91085659238105,4.86454725,-4.640772596195652,-0.739566188188404,True,1.200399999999999
mp-685014,In32 Br48,80,Orthorhombic,19,2978.489589541353,4.186662622920037,37.23111986926691,2.56267047,-3.154800182875,-1.068962764541666,False,2.0644
mp-1200516,In4 Cu6 Se12 O36,58,Monoclinic,14,864.8316579856568,4.539139341404863,14.910890654925117,2.07961296,-5.709191300689656,-1.300407354048133,False,0.389499999999999
mp-1212052,In2 Hg5 Te8,15,Tetragonal,119,536.1373585672628,6.9792478090482915,35.74249057115085,2.58740157,-33.31502541933333,-0.292758229166664,True,0.0053
mp-1201574,In4 Hg12 P6 Cl18,40,Monoclinic,4,1145.4643038324555,5.349767734074973,28.636607595811387,0.28848803,-2.91563942125,-0.9026551468630961,False,2.1903
mp-22356,In4 Hg2 S8,14,Cubic,227,328.370782269334,5.648418624459176,23.455055876381,3.4541513,-3.9284885835714283,-0.7311374701190471,False,0.3467
mp-20731,In2 Hg1 Se4,7,Tetragonal,82,206.27363101993924,6.005962725997882,29.467661574277034,2.07805823,-22.268751251428572,-0.587147221964284,True,0.6337
mp-19765,In2 Hg1 Te4,7,Tetragonal,82,254.09628894446195,6.147064274524243,36.29946984920885,3.41245074,-28.43250032857143,-0.404802539642856,True,0.5295000000000001
mp-22598,In16 O24,40,Cubic,206,526.9797159082178,6.998712419580601,13.174492897705445,5.1450695,-6.066513488,-1.994067387666665,False,0.6305000000000001
mp-31232,In4 P2 O10,16,Triclinic,2,200.6127675305557,5.63863249195226,12.53829797065973,4.78161004,-6.741069883750001,-2.281866629122024,False,2.073399999999999
mp-755116,In4 Pt4 O14,22,Cubic,227,250.83654534676828,9.689035982776284,11.401661152125829,7.48663874,-6.273488469545456,-1.5192756366666682,True,2.196199999999999
mp-22216,In16 S24,40,Tetragonal,141,961.988411199058,4.499472952568761,24.04971027997645,4.35222947,-14.595410443,-0.742974841687498,False,0.8856
mp-1199125,In16 Se16 O56,88,Orthorhombic,56,1222.5172087479307,5.428309875751703,13.892241008499212,2.69648893,-5.873388262727272,-1.5873975830018932,False,2.8578
mp-612740,In12 Se18,30,Hexagonal,169,895.3792135737424,5.191105833931657,29.84597378579141,2.52989165,-18.305059758333336,-0.686687467770832,True,0.9903000000000001
mp-1197742,In12 Te30,42,Monoclinic,15,1558.303626706225,5.54735334846334,37.10246730252917,4.08444142,-24.93354062857143,-0.327354584285715,False,0.8515
mp-504908,In6 Te3 O18,27,Trigonal,150,334.23675145877587,6.755182694579025,12.379138942917624,4.77505517,-6.082095763333334,-1.821049162222222,False,1.016599999999999
mp-607450,In12 Ru4,16,Tetragonal,136,361.3033973904095,8.190457243982019,22.581462336900593,7.304156,-23.52604955625,-0.23597294750000203,False,0.229
mp-568493,In12 Sn4 I20,36,Monoclinic,14,1414.3112412067824,5.155162495896649,39.28642336685507,3.01930286,-2.897368275,-0.685462034999999,True,2.0965
mp-1212594,In12 Te12 Br4,28,Orthorhombic,62,1020.8424888286683,5.251808801401379,36.45866031530958,3.80535465,-3.459105703928571,-0.69562206892857,True,1.304199999999999
mp-616327,In12 Te12 I4,28,Orthorhombic,62,1075.2695278328158,5.276308764597717,38.40248313688628,3.50323113,-3.355854763571431,-0.608504545714287,False,1.1004
mp-1200791,In8 As10 Br6 O24,48,Triclinic,2,947.8780429687968,4.434226571834049,19.7474592285166,3.9932477,-5.812924793125,-1.701521488923611,False,2.987999999999999
mp-556528,In32 Ge8 S32,72,Cubic,205,1862.6610798692318,4.708280678747705,25.870292775961552,3.6949117300000003,-4.255922301666666,-0.6766821796296271,True,1.0696
mp-646878,In32 Sn8 S32,72,Cubic,205,1968.069882096279,4.767076381351161,27.334303918003872,3.7761761,-16.99789162625,-0.642275889722223,True,1.176
mp-617281,In16 Te12,28,Orthorhombic,58,928.9629253869975,6.020879476142618,33.17724733524991,5.24536256,-24.189687638214284,-0.39453985964285304,False,0.12239999999999901
mp-36751,In5 Ag1 S8,14,Cubic,216,322.33703641936035,4.8346281630045045,23.02407402995431,4.25201221,-14.883376320714286,-0.7027461991071411,False,0.10349999999999901
mp-1224092,In5 Ag1 Se8,14,Monoclinic,5,408.16370868394154,5.34429569329304,29.154550620281537,2.95504023,-18.413054989285715,-0.6458184969642871,True,0.22360000000000002
mp-1224268,In5 Ag1 Te8,14,Monoclinic,5,505.11749099829217,5.597700658683101,36.0798207855923,3.860663289999999,-24.54976464357143,-0.436434391785715,True,0.17879999999999902
mp-28112,In10 Cl18,28,Trigonal,167,790.0828490560066,3.7543877791296962,28.21724460914309,0.9953953400000001,-13.139569971428571,-1.120648401607141,False,2.9777
mp-1212167,In5 Cu1 Se8,14,Tetragonal,111,394.83369483115484,5.338320496587291,28.202406773653916,3.35354995,-17.667153848571427,-0.650566009464284,False,0.45480000000000004
mp-1224528,In5 Cu1 Te8,14,Monoclinic,5,489.9238850859216,5.621072683510553,34.99456322042297,4.30784433,-23.795914322142856,-0.43323272357142506,True,0.14150000000000001
mp-510347,In10 S10 Br2,22,Orthorhombic,31,546.9174159192647,4.944836177512608,24.85988254178476,4.66913744,-4.105249062272727,-0.8211933268939371,False,1.1148999999999991
mp-31263,In10 S10 Cl2,22,Monoclinic,11,537.2844178879159,4.758730562671548,24.42201899490527,4.60558039,-4.163969945909091,-0.8606781864393931,False,1.2286
mp-21084,In6 Ga2 Pt1 O8,17,Cubic,225,262.5503984355064,7.282410625059173,15.444141084441553,5.3180787,-5.790745937058823,-1.775095592058822,False,0.567199999999999
mp-22186,In6 Ge2 Pt1 O9,18,Cubic,225,268.49979127660924,7.256076496647469,14.916655070922737,5.45877657,-5.996619478888889,-1.751959449166666,False,1.3445
mp-1224649,In12 Te20 Pb2,34,Monoclinic,5,1291.3789747231638,5.58607544566475,37.98173455068129,3.71201815,-26.69727671,-0.46616379882353204,False,0.9293
mp-28730,In28 Cl36,64,Cubic,205,1830.067682342686,4.075167849986771,28.59480753660447,2.17353277,-14.36145927421875,-1.022579103125,True,2.1915
mp-558992,In7 Ge1 Ir1 O8,17,Cubic,216,273.6630975407977,7.260623975966256,16.097829267105748,5.72547081,-5.899411175294118,-1.642977864803921,False,0.41029999999999905
mp-669311,In14 Te20,34,Trigonal,155,1289.828592026953,5.354922804737431,37.93613505961626,3.87501785,-24.707249424117645,-0.458874379411765,False,0.8223
mp-22661,In2 Ag2 P4 S12,20,Trigonal,163,451.7879514326842,3.506585454017093,22.589397571634212,2.94608123,-11.440607187000001,-0.42574572278273803,False,1.148299999999999
mp-20902,In2 Ag2 P4 Se12,20,Trigonal,163,545.5405834723116,4.616860577266934,27.27702917361558,2.61853072,-4.2438666755,-0.503013941668154,False,0.6040999999999991
mp-2761520,In2 Ag6 F12,20,Monoclinic,14,295.61218610612,6.206127097553135,14.780609305306001,2.13463256,-12.337782115500001,-1.797543163999999,True,1.1389
mp-1223893,In1 Ag1 Ge1 Se4,7,Tetragonal,82,192.92190197798286,5.260498372037042,27.56027171114041,2.43161404,-4.081447072857143,-0.6230491889583321,True,0.8570000000000001
mp-20329,In2 Ag2 O4,8,Hexagonal,194,118.28147641161965,7.150982639162847,14.785184551452456,3.44709786,-5.26692541874999,-1.392417060833322,False,0.23470000000000002
mp-1204248,In4 Ag4 P8 O28,44,Monoclinic,14,593.7018331444738,4.437370968391073,13.493223480556223,4.65750744,-6.915850241363636,-2.2732333770562763,True,2.4499
mp-19833,In2 Ag2 S4,8,Tetragonal,122,196.588378662141,4.845347505025015,24.573547332767625,3.05066712,-15.5602438475,-0.559127425156249,True,0.377299999999999
mp-1224048,In2 Ag2 Sn2 S8,14,Orthorhombic,74,327.2584589094085,4.766156209192377,23.37560420781489,4.80575482,-4.431461025,-0.6935865183333311,False,0.9214999999999991
mp-22386,In2 Ag2 Te4,8,Tetragonal,122,272.3712401531629,5.826963992547697,34.04640501914536,3.41832602,-24.06834301375,-0.37611397750000103,True,0.064999999999999
mp-1195503,In8 As8 H32 O48,96,Orthorhombic,61,1042.3015928523698,3.693139790024863,10.857308258878852,3.21776984,-5.788600531041666,-1.563789859305555,True,2.8192
mp-1188700,In2 As2 H4 O10,18,Triclinic,2,206.74603040131308,4.365313409979446,11.485890577850727,1.64930617,-5.980505858888889,-1.651679839074074,False,2.1239
mp-7027,In2 B2 O6,10,Trigonal,167,105.35335310154868,5.473290410538121,10.535335310154867,3.9195389,-7.315081527000001,-2.458591821166667,False,2.6556
mp-559521,In1 Bi2 S4 Cl1,8,Monoclinic,12,193.0865795780102,5.98980957658576,24.135822447251275,4.23797365,-4.459365861249999,-0.8417129320833321,False,1.5805
mp-22870,In2 Br2,4,Orthorhombic,63,130.0873263179074,4.971175859765129,32.52183157947685,2.65051316,-3.132871465000001,-0.934811325833333,False,1.257099999999999
mp-568108,In8 Br16,24,Orthorhombic,52,873.7802042419324,4.175212022338988,36.40750851008052,-0.01985566,-3.163414759999999,-1.152392488888888,False,2.4137
mp-570219,In2 Br6,8,Monoclinic,12,263.1236339364951,4.47478553312914,32.890454242061885,-0.3502847,-3.15653166375,-1.239028326666666,False,2.489
mp-27703,In2 Br2 O2,6,Orthorhombic,59,132.47808183629036,5.282551075898691,22.07968030604839,1.66792439,-4.779563303333333,-1.664869542222221,False,1.9948000000000001
mp-23276,In32 Cl32,64,Cubic,198,1875.7302000224524,4.257002267367651,29.30828437535082,2.73114401,-15.276190633125,-0.910675994374999,True,2.2049
mp-27702,In2 Cl2 O2,6,Orthorhombic,59,122.27770773078213,4.515925264596758,20.379617955130353,1.51759804,-4.99980449,-1.814578640555555,False,2.364499999999999
mp-1077901,In1 Co3 Sn1 S2,7,Trigonal,166,111.22495706900287,7.083440408508427,15.889279581286123,7.597126,-5.704169171428572,-0.49763847238095105,False,0.19669999999999901
mp-1223929,In1 Cu1 Ge1 S4,7,Tetragonal,82,160.36757471353764,3.927119866219554,22.909653530505377,3.81117418,-4.706669431428572,-0.701691354523808,True,1.1346
mp-1224210,In1 Cu1 Ge1 Se4,7,Tetragonal,82,187.2500371630063,5.02678995918389,26.7500053090009,2.93671323,-4.2672448,-0.6293799172916661,True,0.6493000000000001
mp-541283,In4 Ga4 Br16,24,Monoclinic,13,850.407042216947,3.937749113729871,35.43362675903946,-0.6641087800000001,-3.242094248333333,-1.18625159736111,False,2.9288
mp-504951,In6 Ga6 S18,30,Hexagonal,169,718.6195971699804,3.892238095678459,23.953986572332678,2.29061804,-12.404833678,-0.7795609626874991,False,2.0936999999999992
mp-504952,In6 Ga6 Se18,30,Hexagonal,169,819.5928046815503,5.122929557129563,27.31976015605168,1.91578643,-16.09676530133333,-0.7055558967708331,True,1.3166
mp-571341,In4 Hg24 As16 Cl28,72,Cubic,205,1925.804325678463,6.436632293467907,26.747282301089765,1.05652216,-2.7490586344444443,-0.7358644289814831,True,1.4202
mp-1203885,In4 Hg24 Sb16 Br28,72,Cubic,205,2393.1789616021997,6.563186402367279,33.23859668891944,1.04579428,-2.453320093472222,-0.6426625005092611,True,1.127
mp-1196151,In2 Hg14 S12 Cl10,38,Triclinic,2,1033.0874529048892,6.071313815649804,27.186511918549716,2.29734081,-2.800257489736842,-0.747639099692984,False,1.4549
mp-23202,In2 I2,4,Orthorhombic,63,151.119578469854,5.312211809671205,37.7798946174635,3.52492482,-2.794013837499999,-0.6524206583333321,True,1.3412
mp-29312,In8 I16,24,Orthorhombic,52,1072.3719431102218,4.566471092825289,44.68216429625924,1.54184846,-2.699471808333333,-0.763738817222221,False,1.888599999999999
mp-567789,In4 I12,16,Monoclinic,14,749.4843069014399,4.39154900218926,46.842769181339996,0.22863577000000002,-2.613816165625,-0.7810132685416661,True,2.2833
mp-1212006,In2 Ni2 Ag4 F14,22,Orthorhombic,74,327.71335916013777,5.292395254968391,14.896061780006262,0.48297318,-4.620616516818182,-2.109511752727272,False,1.4768
mp-27175,In4 O4 F4,12,Orthorhombic,70,152.04092763398808,6.544948070996765,12.67007730283234,3.89432147,-5.582708000000001,-2.375712292222223,True,1.330699999999999
mp-20351,In1 P1,2,Cubic,216,51.44801613145897,4.705583122405697,25.724008065729485,4.68757835,-16.148606945,-0.358273598988095,True,0.45460000000000006