material_id,composition,nsites,crystal_system,space_group,volume,density,density_atomic,efermi,energy_per_atom,formation_energy_per_atom,is_gap_direct,band_gap
mp-9339,Nb2 P2,4,Tetragonal,109,64.41246005193307,6.387205680425864,16.103115012983267,7.0762785,-8.7470525525,-0.988663269821428,True,0.11620000000000001
mp-570531,Nb2 P4 N2 Cl24,32,Monoclinic,15,976.7148203789227,2.02075919705376,30.522338136841334,-0.81988337,-4.5705044946874995,-1.3546892799553572,False,2.4276
mp-679987,Nb8 P16 S16 Cl40,80,Monoclinic,14,2424.0791511631146,2.171502642143412,30.300989389538934,-0.12756518,-5.0646384615,-1.219469938928571,False,1.705
mp-570486,Nb8 P16 Se16 Cl40,80,Monoclinic,14,2649.876186444693,2.4566543853133522,33.12345233055866,-0.1381163,-4.8961328235,-1.179453918897321,False,1.3286
mp-27787,Nb2 P2 Cl20,24,Triclinic,2,673.3288614101131,2.359675267698904,28.055369225421376,-0.79304167,-4.288884387916666,-1.455367174136904,False,2.2683
mp-560255,Nb4 P4 Cl32 O4,44,Orthorhombic,62,1230.2054249090368,2.286591042748727,27.95921420247811,-1.16316751,-4.898355996363637,-1.693530362694805,True,2.3872
mp-556918,Nb4 P4 O20,28,Orthorhombic,33,413.36403063815254,3.276007915397064,14.763001094219733,-0.25246718,-8.680678128928571,-2.9297376160204083,False,2.2614
mp-2762805,Nb4 S4 I4,12,Trigonal,160,317.6914407829312,5.266112147401022,26.474286731910933,4.29690665,-20.113007896666666,-1.003755395104167,False,0.5914
mp-1969,Nb2 Sb4,6,Monoclinic,12,137.98981957965026,8.096961771913243,22.998303263275044,7.91779994,-25.697218913333334,-0.314983543333336,False,0.0047
mp-3491,Nb4 Sb4 O16,24,Orthorhombic,33,329.2661959854274,5.621377850336273,13.71942483272614,3.20948477,-8.193491296249993,-2.523132912916659,False,2.4311
mp-505297,Nb1 Sb1 Ru1,3,Cubic,216,58.88361462561361,8.903879238228733,19.627871541871205,7.15066285,-25.80394155333333,-0.515632994999999,False,0.377299999999999
mp-23498,Nb4 Se4 Br12,20,Monoclinic,13,614.9830639574155,4.445273497842308,30.749153197870776,0.70076965,-4.9629368295,-1.26132560496875,False,0.736399999999999
mp-570270,Nb4 Se4 Cl12,20,Monoclinic,13,537.9559870590768,3.435255849351811,26.897799352953843,1.31775281,-12.7464392275,-1.245848912812499,False,0.7559
mp-2012385,Nb4 Se4 I4,12,Trigonal,160,328.7691022516065,6.036098465318776,27.397425187633875,4.09162702,-22.093678820833333,-0.8922392696874981,False,0.612699999999999
mp-2355707,Nb4 Se4 I4,12,Orthorhombic,44,329.567253378228,6.021480147688283,27.463937781518997,4.47131679,-6.062184877499999,-1.021775166614582,True,0.10550000000000001
mp-541817,Nb4 Se4 I12,20,Monoclinic,15,728.4732351623243,5.038374970655778,36.42366175811621,2.50420857,-4.486534377999999,-0.852683505468748,False,0.627
mp-2713956,Nb6 Sn6 P18 O72,102,Trigonal,161,1515.0565301629824,3.265257316021362,14.853495393754729,0.48202426000000004,-7.977370945784314,-2.698969208662466,False,2.9196
mp-1220683,Nb2 Sn12 O2 F30,46,Monoclinic,9,792.3519068923016,4.6363028917251015,17.22504145418047,3.61845818,-5.686246292391303,-2.737790518478259,True,2.739899999999999
mp-505088,Nb8 Te32 I8,48,Monoclinic,14,1700.5225350327562,5.704334371584607,35.42755281318242,3.6602627,-4.716250022500001,-0.683159817777778,True,0.5477000000000001
mp-28038,Nb4 Te4 Br12,20,Monoclinic,13,643.0609971097618,4.753580780623357,32.15304985548809,1.58796368,-4.806260205000001,-1.175170097333334,False,0.5947
mp-540924,Nb4 Te4 I12,20,Monoclinic,13,766.6170222348449,5.209114433685061,38.33085111174224,2.94140862,-4.333631542999998,-0.7703017873333311,False,0.45779999999999904
mp-753993,Nb4 V4 O20,28,Orthorhombic,62,472.49657534362575,3.146716293789564,16.87487769084378,-0.56995811,-8.990486568571429,-2.715484263571429,False,2.0888
mp-1029422,Nb2 Zn4 N6,12,Orthorhombic,36,152.47287666534035,5.788296258643522,12.70607305544503,2.2817674500000003,-6.851710200833335,-0.579105951666668,False,1.850099999999999
mp-1096784,Ni4 As8 O16,28,Tetragonal,135,380.56236686462387,4.7566835345604535,13.591513102307996,2.43365297,-6.524285150357142,-1.536824326785712,False,2.7724
mp-27806,Ni1 N2 F14,17,Tetragonal,87,204.0701939135492,2.869827717322747,12.004129053738188,-1.63915087,-3.87113614,-0.974040527058823,True,1.9538000000000002
mp-19135,Ni4 P8 O24,36,Monoclinic,15,411.3828797372334,3.497809534664725,11.42730221492315,2.93079906,-7.524747774722223,-2.380431134642857,False,1.486299999999999
mp-21275,Ni4 Sb8 O16,28,Tetragonal,135,417.2088814840183,5.830246661630062,14.900317195857797,4.47971377,-6.4559796774999985,-1.623124937499998,False,2.0339
mp-556221,Ni2 Xe8 F56,66,Monoclinic,15,1087.4226692321274,3.407808019506772,16.47610104897163,-4.72261239,-2.711800153181818,-0.9083850059090911,False,2.329399999999999
mp-654447,Ni8 Xe16 F128,152,Orthorhombic,61,2451.0941789600834,3.388718247946559,16.1256195984216,-3.98395177,-2.902439708092105,-0.982749022828947,True,0.5866
mp-705872,Ni34 As12 O64,110,Monoclinic,14,1128.2273434340952,5.767439023975597,10.25661221303723,3.97181274,-6.623520858181806,-1.448651568818169,False,2.484999999999999
mp-22638,Ni4 Ge2 O8,14,Cubic,227,138.90137272237544,6.073625217696281,9.921526623026818,4.01941694,-6.801564132142856,-1.662257669999998,True,2.1356
mp-554705,Ni4 P4 O14,22,Monoclinic,14,225.9069260569849,4.28287047788338,10.26849663895386,3.63279128,-7.412793299318182,-2.228525349707793,False,1.558699999999999
mp-504969,Ni6 As4 O16,26,Orthorhombic,64,271.37372051097816,5.555066768713786,10.437450788883776,3.47919321,-6.636443227307693,-1.5391860623076932,False,2.1524
mp-504714,Ni6 B14 I2 O26,48,Cubic,219,449.2524132325048,4.336812184035671,9.359425275677184,3.41592718,-7.776406664583333,-2.36208757642361,False,2.4228
mp-24540,Ni6 H4 Se6 O20,36,Triclinic,2,456.9774236563996,4.178588396454393,12.693817323788878,1.68056128,-5.962424494444445,-1.290308527751735,False,2.9775
mp-560757,Ni6 Mo4 Se2 O22,34,Triclinic,2,417.5582029411021,4.954386529258759,12.281123615914767,2.56121129,-7.311894088823529,-1.608647453961397,True,2.364399999999999
mp-1198070,Ni12 Te8 Mo4 O40,64,Orthorhombic,19,931.3985537141923,4.90078504705274,14.553102401784255,2.44461198,-6.7977530462499995,-1.5507354220833331,True,2.9872
mp-555343,Ni10 Se8 Br4 O24,46,Triclinic,2,702.0660234399064,4.546458583180777,15.26230485738927,1.90352717,-5.807475818695653,-1.2190517125815221,False,2.8709000000000002
mp-556514,Ni20 Sn4 B8 O40,72,Orthorhombic,62,719.5563695965322,5.481246588235971,9.993838466618504,4.62769802,-7.179001394027779,-1.859632013657408,True,2.9308
mp-555442,Ni7 Te6 Cl2 O18,33,Trigonal,148,502.21969420464904,5.076477535200653,15.218778612262092,3.351952009999999,-5.997828303939394,-1.3893078248484851,False,2.7053000000000003
mp-24231,Ni1 H12 Cl2 O6,21,Monoclinic,12,193.40995596350004,2.040718752848649,9.209997903023812,-0.01687203,-5.0539480900000004,-1.248853538809524,False,1.412599999999999
mp-23968,Ni4 H8 Se4 O20,36,Monoclinic,15,368.49799085587216,3.9594727635555733,10.236055301552005,0.82330766,-5.786541920555555,-1.25252124720486,True,2.9949
mp-19009,Ni1 O1,2,Cubic,225,18.34183362776642,6.762154477618838,9.17091681388321,5.87177732,-6.5821341425,-1.218085299999999,False,2.300899999999999
mp-20580,Ni1 Rh1 F6,8,Trigonal,148,92.94852075559167,4.923443935946308,11.618565094448961,-0.45472809000000003,-8.7638365175,-1.904572331249999,False,0.015899999999999002
mp-1180046,Ni2 S4,6,Monoclinic,14,103.50869887667355,3.940790604191446,17.251449812778926,5.56203067,-5.276503906666667,-0.5908853016666661,False,0.24040000000000003
mp-1195453,Ni4 Sb12 Xe4 F92,112,Monoclinic,14,1840.1696999090047,3.581487372896187,16.4300866063304,-3.05021672,-4.349614273482143,-2.127402873660714,True,1.609299999999999
mp-1219954,Ni2 Sb12 Ru2,16,Monoclinic,12,392.86217138690176,7.526389127204368,24.55388571168136,7.11019058,-24.1657700975,-0.21025174312500203,False,0.068299999999999
mp-18817,Ni2 Se2 O8,12,Orthorhombic,63,138.78490608114268,4.825443526591887,11.565408840095223,2.10391879,-6.033719376666672,-1.1890706803906301,False,2.1705
mp-1220014,Ni4 Te4 O16,24,Monoclinic,14,261.63023423061657,6.354280647121693,10.901259759609024,5.39624354,-6.197424746666666,-1.411543647777777,False,0.2761
mp-1095223,O4 F8,12,Orthorhombic,62,163.29880947970207,2.19628815325912,13.608234123308506,-2.17179391,-3.4212776375000002,-0.496055719166667,False,2.1241
mp-779221,P8 H36 C12 Br12,68,Monoclinic,14,1008.9302991481585,2.282867898101019,14.837210281590567,-0.01763132,-4.706305220147059,-0.35428868591386503,True,2.5072
mp-28266,P4 Pd2,6,Monoclinic,15,100.96585044697865,5.538126998604,16.82764174116311,6.11811231,-5.765189985,-0.42824703142857,True,0.34189999999999904
mp-3006,P2 Pd3 S8,13,Trigonal,164,315.60304137067794,3.355390565467712,24.277157028513688,1.13816163,-5.209562543076923,-0.6343726184065921,False,1.5779
mp-29274,P4 Pd2 O12,18,Orthorhombic,53,243.41967031074813,3.606829497725188,13.523315017263785,0.74726062,-7.245141252777785,-2.167519598253974,False,1.8521
mp-15953,P8 Rh4,12,Monoclinic,14,181.00969000940165,6.04928689916941,15.084140834116804,7.70783885,-14.773517265833334,-0.7267235144841251,False,0.37049999999999905
mp-559115,P16 Rh8 Cl8 F48,80,Monoclinic,14,1512.9810311194863,2.759593209391988,18.912262888993578,1.03516399,-5.534708691375,-2.382017494303571,False,1.440899999999999
mp-1413,P4 Ru2,6,Orthorhombic,58,87.36287712925868,6.197070793396386,14.560479521543114,8.18280746,-15.150502893333334,-0.6742735869841281,False,0.479199999999999
mp-541788,P8 S20,28,Triclinic,2,768.3664039148517,1.921438561880109,27.441657282673276,0.36003138,-8.526280050357142,-0.214973188216411,False,2.5540000000000003
mp-1199938,P8 S28,36,Monoclinic,14,952.5813284124191,1.997026671381243,26.46059245590053,1.00074297,-8.423256228888889,-0.17335109562665202,True,2.1425
mp-2013315,P3 Br1 Cl14,18,Tetragonal,87,480.60905572914805,2.312021397116392,26.70050309606378,2.87371107,-7.662830574444445,-0.640649837579365,False,2.0731
mp-569386,P24 N8 Cl96,128,Monoclinic,14,3450.5404080230423,2.049559992048624,26.95734693768002,0.7681307900000001,-3.9941211460937502,-1.071170401026785,False,1.971099999999999
mp-14935,P18 Rh6 O54,78,Monoclinic,9,973.4213471851976,3.478165064394053,12.479760861348687,2.664379229999999,-7.521029773461539,-2.279308427994506,True,1.691799999999999
mp-28400,P12 Ru4,16,Triclinic,2,244.21564415938082,5.276158455643308,15.263477759961301,7.74114088,-13.6995175325,-0.591826474732142,False,1.144599999999999
mp-28393,P12 Se16 I4,32,Monoclinic,14,1009.1860053989673,3.525589573058633,31.537062668717727,1.0233714,-4.309094210625,-0.339834322912945,False,1.6621000000000001
mp-570583,P16 N12 Cl44,72,Monoclinic,13,2437.627798225027,1.514735912474812,33.855941642014265,-0.7187719100000001,-4.746178958611111,-1.02336239547619,True,2.4896000000000003
mp-27173,P12 Ru3,15,Triclinic,2,233.46729289993837,4.800200227408077,15.564486193329225,7.72588415,-12.801271645333333,-0.514703536714284,False,1.258600000000001
mp-1468,P32 S24,56,Orthorhombic,62,1505.202911217807,1.942425809305307,26.878623414603698,-0.16336303,-8.741601223214285,-0.153986581120322,True,2.8765
mp-541352,P16 S12 I8,36,Triclinic,2,1137.3162348659512,2.767665699554373,31.59211763516531,0.60598472,-4.520385293055556,-0.39538551150793505,False,2.2588
mp-2650,P16 S28,44,Monoclinic,14,1137.9158459348423,2.033362539496993,25.861723771246417,0.36606083,-8.607139174545454,-0.22047564514475002,True,2.7617000000000003
mp-542630,P16 S36,52,Monoclinic,14,1421.2464868262073,1.927714130506903,27.331663208196293,0.18292232,-8.550564723076924,-0.218003416324405,False,2.7085
mp-1201169,P16 Se12 Br8,36,Monoclinic,15,1103.3636616254141,3.133866081252831,30.648990600705947,-0.03270126,-4.383541980277777,-0.44759513534474105,False,2.014
mp-28089,P16 Se12 I8,36,Tetragonal,122,1191.5663799937938,3.425879544490474,33.099066110938715,0.68441522,-4.233368446111111,-0.32251802784474204,False,2.0743
mp-22874,P4 Br20,24,Orthorhombic,57,848.3977810485536,3.370361053255473,35.34990754368973,-0.9011425,-3.048089240833333,-0.7813882074404751,False,1.6183
mp-647343,P4 Br28,32,Orthorhombic,62,1116.6876060858342,3.5111668887223972,34.89648769018232,-0.44943105,-2.829829503124999,-0.720567094330356,True,1.2227000000000001
mp-569410,P3 Cl15,18,Monoclinic,12,472.63025157637736,2.194878120865734,26.257236198687632,0.53427451,-7.278189656666667,-0.650811190079366,False,1.7516
mp-29443,P2 I4,6,Triclinic,2,242.2460123090321,3.904236009133053,40.37433538483868,1.06198959,-3.134573235,-0.313406983214285,False,1.926699999999999
mp-27529,P2 I6,8,Hexagonal,173,350.1042029708565,3.905252359286758,43.76302537135706,0.05339502,-2.838635983749999,-0.341758141160712,False,2.2746
mp-27824,P2 I2 Cl12,16,Tetragonal,113,518.1727837290273,2.375229037473215,32.385798983064205,0.12593311000000001,-3.231292379375,-0.9774495118303571,False,1.7907000000000002
mp-573373,P4 I4 Cl32,40,Orthorhombic,74,1261.8154551918137,2.32405365209495,31.545386379795342,0.10642219,-3.1355839955,-0.9628011414642861,False,1.6941000000000002
mp-7280,P8 Pd8 S8,24,Orthorhombic,60,448.8316178972408,5.015562776918197,18.701317412385034,3.57935735,-5.505654158333332,-0.59441585738095,False,1.014299999999999
mp-3123,P8 Pd8 Se8,24,Orthorhombic,60,487.5873488066263,5.894556122281345,20.31613953360943,3.43201418,-5.237269350416667,-0.5401804127455351,False,0.9677000000000001
mp-28870,P6 Rh6 O24,36,Orthorhombic,74,438.77671851321855,4.49315899221738,12.188242180922737,2.51508913,-7.396871356666667,-1.968267120773808,False,0.9836
mp-1219924,P4 Rh4 S4,12,Cubic,198,181.59018753094585,6.069863877025767,15.13251562757882,7.00447898,-14.562578188333333,-0.8381435135962311,False,1.3994
mp-1102531,P4 Rh4 Se4,12,Cubic,198,197.73201905899262,7.149634361481312,16.47766825491605,6.53609355,-16.546099375833332,-0.729477651512896,False,1.0834
mp-28885,P16 Se16,32,Monoclinic,14,921.5979334272434,3.169265900767657,28.799935419601358,0.88181487,-11.74729367375,-0.090475402269344,False,2.2667
mp-662547,P4 Se4 Cl36,44,Orthorhombic,46,1212.585041667096,2.349984886217702,27.558750946979455,-0.07891175,-7.686417813409091,-0.533182666094426,False,2.2607
mp-1189263,Pd2 N4 O12,18,Monoclinic,14,240.42000377652062,3.183076940340627,13.356666876473367,0.01869334,-6.483000991666667,-0.755867288333332,True,1.3005
mp-28174,Pd1 S2 Cl6,9,Triclinic,2,241.37982016273432,2.636639162911701,26.81998001808159,-0.19676046,-3.427959907777781,-0.700420158333336,False,1.7553
mp-2422143,Pd1 Se6 Br2,9,Triclinic,2,297.99530653609105,4.123484349799246,33.11058961512123,0.46004423,-3.84610064,-0.576184668229166,False,1.094
mp-567437,Pd4 Se32 Cl8,44,Orthorhombic,61,1269.0115403949321,4.234432943598672,28.841171372612095,1.35658354,-13.816769098863636,-0.20242243954545103,False,1.3609
mp-28175,Pd2 Se4 Cl12,18,Monoclinic,15,509.8341252887354,3.107573254675447,28.32411807159641,-0.73707595,-10.24138128111111,-0.408247119236109,False,1.7002000000000002
mp-649616,Pd4 Xe8 F64,76,Orthorhombic,29,1209.526070418239,3.69569654629858,15.91481671602946,-2.19363986,-2.87910336618421,-0.9910050425000001,False,1.3427
mp-1209912,Pd24 Se16 S8,48,Tetragonal,135,919.4077911492946,7.3579643340951755,19.15432898227697,3.71162148,-18.008174979791665,-0.41826158411458103,False,0.32220000000000004
mp-27857,Pd8 Br16,24,Monoclinic,15,705.7037895605228,5.01153034644285,29.40432456502178,-1.06074334,-3.5126962699999993,-0.694771309999999,False,0.9792000000000001
mp-29487,Pd6 Cl12,18,Trigonal,148,444.38834770947574,3.9756679315509373,24.68824153941532,-0.7029499100000001,-12.341778116666667,-0.5866676483333321,False,1.5592000000000001
mp-1524446,Pd2 F6,8,Trigonal,148,101.98757516599757,5.321380357867303,12.748446895749696,0.91935012,-9.53671028375,-1.452075918750001,False,1.0487
mp-13868,Pd2 F8,10,Orthorhombic,43,123.87576309118403,4.890463199182551,12.387576309118403,-2.03416089,-8.413561939000001,-1.320648856999999,False,0.6178
mp-27747,Pd4 I8,12,Monoclinic,14,409.99532760531173,5.835912631333681,34.166277300442644,1.96854934,-3.245639969999999,-0.503004289999998,False,0.9294000000000001
mp-13682,Pd4 S8,12,Orthorhombic,61,240.46269291447265,4.711000020437429,20.038557742872722,3.08151392,-13.347824451666668,-0.337673860208333,False,0.42099999999999904
mp-560901,Pd16 S16 Cl16,48,Monoclinic,14,1158.8512712448469,3.987822787385049,24.142734817600978,1.27965788,-4.496795588541668,-0.7745341960416671,False,0.9647
mp-2677258,Pd2 S2 O8,12,Monoclinic,15,182.04454598799876,3.693933985024819,15.17037883233323,0.62978288,-6.268090337499998,-1.416409437916666,True,0.962
mp-2418,Pd4 Se8,12,Orthorhombic,61,276.089714769685,6.359482057942142,23.007476230807082,2.65838362,-17.520652720833333,-0.32612803020833003,False,0.4001
mp-545482,Pd2 Se2 O6,10,Monoclinic,11,154.68489951937246,5.0106199066219,15.468489951937247,1.48595699,-5.736829246,-1.032893985468749,False,1.0589
mp-1192510,Rb4 Ge12 As12,28,Orthorhombic,62,778.9329958020971,4.503689175592126,27.81903556436061,3.14283564,-4.320511934642857,-0.19765690107142903,False,0.7805000000000001
mp-1210315,Rb4 Nb24 Cl60,88,Orthorhombic,51,2360.696381771937,3.305189180580799,26.826095247408375,1.87004985,-5.8112673421590895,-1.751426146136362,True,0.966499999999999
mp-9798,Rb2 Sb4 Se8,14,Triclinic,2,439.12168405760434,4.876833880010663,31.36583457554317,2.75805091,-4.084507180714285,-0.767052543124999,False,1.1191
mp-1192409,Rb4 Sn12 As12,28,Orthorhombic,62,882.0002043058765,5.018235254001864,31.500007296638447,4.58160944,-4.109207996785714,-0.24926267750000003,False,0.5979000000000001
mp-505750,Rb8 Sn16 Se32,56,Monoclinic,14,2029.4019052097817,4.181064232178622,36.23931973588896,1.6924645200000001,-4.159533344642857,-0.876201388482142,False,1.2091
mp-1219774,Rb12 Sn2 As6 O1,21,Trigonal,164,761.1618461798251,3.771005786442884,36.24580219903929,1.72993192,-3.017156169523809,-0.505049084761904,True,0.3095
mp-680306,Rb56 Si40 O68,164,Monoclinic,14,3798.365368420666,3.05914444568927,23.16076444158943,1.982994409999999,-5.897217369207317,-2.187558969207317,False,1.4904
mp-680314,Rb56 Si24 Ge16 O68,164,Monoclinic,14,3820.2401237295144,3.3514909299702342,23.294147095911672,1.85637114,-5.8493813751829284,-2.2179951873780492,False,1.342799999999999
mp-1194699,Rb28 Zn2 Ge32,62,Orthorhombic,31,2314.8826872629566,3.47790912984968,37.3368175364993,1.6363636,-3.051141190806451,-0.18160356806451602,False,1.0649
mp-1209652,Rb4 Nb6 Br18,28,Monoclinic,12,910.5466345991238,4.2629835984288444,32.51952266425442,0.99432073,-4.875198453214283,-1.518234018928569,True,1.118399999999999
mp-22976,Rb4 Nb6 Cl18,28,Monoclinic,12,784.0843854180101,3.25605026638775,28.003013764928934,1.53228609,-5.377415341785714,-1.884424737142858,False,1.074899999999999
mp-569883,Rb16 P24 Se48,88,Orthorhombic,29,2879.9600856668585,3.402385085773089,32.72681915530521,1.6716157999999992,-4.308024761590909,-0.7459377082264611,False,1.5965999999999991
mp-541355,Rb8 Tc12 Se24,44,Monoclinic,15,1135.1004747978484,5.492873098209655,25.797738063587463,2.9068659,-5.9101545379545435,-0.9993860065056801,True,0.899
mp-541916,Rb8 Ag4 As12 Se24,48,Monoclinic,14,1549.3122335507032,4.189968390002707,32.277338198972984,1.1729560700000001,-4.016229191041667,-0.70040900047743,False,1.4299
mp-555852,Rb4 Ag4 Ge2 S8,18,Monoclinic,15,498.2353196280587,3.916568023192983,27.679739979336592,1.17998598,-4.085941531111112,-0.883340461481481,False,1.907
mp-510240,Rb4 Ag8 S6,18,Monoclinic,12,437.54036498810524,5.302634136583595,24.307798054894736,2.21040973,-3.491192606111107,-0.630315099351846,True,0.1922
mp-1111655,Rb2 Ag1 As1 Cl6,10,Cubic,225,286.45086300134926,3.283639591315527,28.645086300134928,0.99409247,-3.592372868999999,-1.535834353416666,False,1.2354
mp-567714,Rb8 Ag4 Br12,24,Orthorhombic,62,846.462050153911,4.068774222744162,35.269252089746296,-0.91650339,-3.19599115375,-1.576850249027777,False,2.6666
mp-29693,Rb8 Ag4 Cl12,24,Orthorhombic,62,739.9678302988775,3.457328009206633,30.831992929119895,-0.69757397,-3.489617470416666,-1.764678433194443,True,2.9649
mp-23399,Rb8 Ag4 I12,24,Orthorhombic,62,1028.4266354094832,4.259532200326508,42.85110980872847,0.46035639,-2.853070439583334,-1.290396494861111,False,2.7800000000000002