material_id,composition,nsites,crystal_system,space_group,volume,density,density_atomic,efermi,energy_per_atom,formation_energy_per_atom,is_gap_direct,band_gap
mp-1190334,La2 Tl4 P4 S14,24,Monoclinic,12,632.8840808627679,4.376831365097504,26.37017003594866,3.49373903,-5.1929668675,-1.0697655873710321,False,2.0622
mp-684022,La8 Tl8 Ge8 Se32,56,Orthorhombic,29,1643.8071575514136,5.9137381156698074,29.353699241989528,3.2491949,-4.945127965178571,-1.243106109851191,False,1.461899999999999
mp-1199053,La8 Tm8 S24,40,Monoclinic,11,933.3866457636792,5.750374710812791,23.33466614409198,5.80643226,-20.25269934475,-2.458534196437497,True,0.7541000000000001
mp-1196184,La4 V8 I4 O36,52,Orthorhombic,57,786.7467086492103,4.319952740679587,15.129744397100199,1.631616199999999,-7.6429325421153855,-2.3229724725,False,2.51
mp-1202389,La4 V4 I20 O64,92,Monoclinic,14,1474.4794468918487,4.866746769031425,16.026950509694007,3.25607624,-5.797497605978261,-1.414569243804348,False,2.3631
mp-19162,La2 V2 O8,12,Tetragonal,141,182.40617724708213,4.6217604216144625,15.200514770590177,2.04458258,-8.85985034,-3.224557474166666,False,2.8563
mp-989524,La2 W2 N6,10,Trigonal,161,129.99677793673973,9.318807569682567,12.999677793673973,7.57654229,-22.944048964,-1.244283644250001,False,1.2096
mp-1200447,La8 Y8 S24,40,Monoclinic,11,956.4758933851981,4.500062413751802,23.911897334629952,5.78165005,-17.29553384275,-2.4628581604375,True,0.7897999999999991
mp-549589,La2 Zn2 As2 O2,8,Tetragonal,129,154.89931395845508,6.329918696896234,19.362414244806885,5.96221076,-6.013969787500001,-2.0605112243750012,True,0.5760000000000001
mp-1222744,La1 Zn1 Cu1 P2,5,Trigonal,156,97.80546965934786,5.599472712737342,19.56109393186957,6.80529415,-5.008264007999999,-0.783083120857142,False,0.1859
mp-7060,La2 Zn2 P2 O2,8,Tetragonal,129,146.62733461290037,5.691611744713422,18.328416826612546,6.2963998,-6.20593320625,-2.066136894910714,True,0.6563000000000001
mp-774082,Li8 Co16 O32,56,Monoclinic,4,524.3428952878199,4.7834051294533495,9.3632659872825,2.10926794,-6.644707010535714,-1.506478392440475,True,0.665899999999999
mp-1196908,Li4 Nd16 Ge16,36,Orthorhombic,62,904.264288917043,6.4232988290167885,25.118452469917862,3.40034216,-5.191650956944445,-0.805692732870369,True,0.05569999999999901
mp-774941,Li8 Ni16 O32,56,Cubic,212,533.953942491228,4.685373161198586,9.534891830200499,3.44832353,-5.967970309821429,-1.21639313172619,False,0.869599999999999
mp-1197150,Li4 Pr16 Ge16,36,Orthorhombic,62,929.5856658033694,6.153032327786486,25.821824050093593,3.42574161,-5.185475579999999,-0.7873733444444431,False,0.0551
mp-28989,Li10 Br1 N3,14,Hexagonal,187,180.7496341921065,1.757778095888539,12.910688156579036,0.36508959,-3.930397061428571,-0.6631821730952381,False,1.3667
mp-721239,Li20 Ge2 P4 Se24,50,Triclinic,1,1164.2888963472483,3.284648407238967,23.285777926944967,0.99884952,-4.1094491638,-1.049683511629762,False,1.506599999999999
mp-721253,Li20 Si2 P4 Se24,50,Triclinic,1,1153.3224861091294,3.187582603777906,23.066449722182586,1.08789607,-4.1664239026,-1.074566643429761,False,1.606599999999999
mp-721252,Li20 Sn2 P4 Se24,50,Triclinic,1,1181.3724161157827,3.366662099345756,23.627448322315654,1.04784968,-4.0891458662,-1.053918454029761,False,1.5635
mp-3297,Li20 Zn8 O18,46,Tetragonal,137,431.46346907979347,3.656501794710325,9.379640632169423,0.53985078,-4.977130375652173,-1.991919412536232,True,2.5347
mp-1210986,Li28 Be12 B18 O54,112,Hexagonal,176,1015.946117528199,2.224618908735999,9.070947477930348,0.21744774,-7.081722680446428,-2.744742851949405,True,0.008400000000000001
mp-1222798,Li28 Mg2 Si8,38,Tetragonal,122,598.7549890039114,1.296920818104255,15.756710236945038,1.93532854,-2.868959592631579,-0.234398420614035,False,0.098999999999999
mp-530262,Li60 Cr8 N36,104,Orthorhombic,33,946.154285953698,2.345909950526654,9.097637364939404,2.47510291,-5.496756722692307,-0.7665860440384621,False,1.3355000000000001
mp-1212343,Li66 Cu63 Si42,171,Trigonal,144,2313.1426880648023,4.049580976666279,13.527150222601183,4.94151579,-3.845524324269006,-0.265978788187134,True,0.04870000000000001
mp-16238,Li2 Ag1 Sb1,4,Cubic,216,72.09594425856892,5.608612306475472,18.02398606464223,5.22984957,-13.477048195,-0.5181467695833331,True,0.14780000000000001
mp-29410,Li4 B4 S10,18,Orthorhombic,63,355.484752829781,1.829511405395888,19.749152934987833,1.565338479999999,-5.203169427222223,-0.9955664147222221,False,2.4427
mp-30100,Li4 B4 Se10,18,Monoclinic,15,333.4083379835799,4.286255147880775,18.522685443532215,2.59944206,-10.736193768333333,-0.6224246154050931,False,1.704699999999999
mp-1194523,Li8 Ca4 Ta8 O28,48,Orthorhombic,62,547.2010120459179,6.407284470973906,11.400021084289955,4.19092367,-8.557715492083334,-3.208296514277779,True,2.8142
mp-7688,Li4 Cd2 Ge2 O8,16,Orthorhombic,31,195.9168468900648,4.4570596151904365,12.24480293062905,-0.03482247,-5.7625412825,-2.113450307708333,False,2.455
mp-1189383,Li4 Cd2 Ge2 S8,16,Orthorhombic,31,350.5641099724573,3.099671320379832,21.91025687327858,0.881517999999999,-4.342972118125,-1.098681862083332,True,2.2131
mp-1188784,Li4 Cd2 Sn2 S8,16,Orthorhombic,31,374.1396937644697,3.313296097401023,23.383730860279357,1.35910547,-4.271065436875,-1.103457180833332,True,1.9176000000000002
mp-8181,Li2 Ce1 N2,5,Trigonal,164,60.051824871365675,5.032936816057925,12.010364974273134,5.07943776,-11.941325722,-1.167017136166667,False,1.203599999999999
mp-754534,Li2 Ce1 O3,6,Orthorhombic,65,75.06942087939011,4.468165299205542,12.511570146565019,1.92567196,-7.098607679999996,-2.998827910277773,False,2.3129
mp-562404,Li4 Co6 Se8 O24,42,Monoclinic,14,549.773331340511,4.219595090385217,13.08984122239312,1.85090807,-6.193777472380951,-1.499621574097221,False,2.6403
mp-757613,Li8 Co12 Sb4 O32,56,Cubic,212,563.3195079202652,5.193233875818305,10.059276927147593,4.22196562,-6.672324034642856,-1.7486965222619042,True,0.8174999999999991
mp-756582,Li8 Co4 Ge4 O16,32,Monoclinic,7,363.29338110589663,3.829461991818445,11.35291815955927,1.34321648,-6.511154946875,-2.090388155833333,False,2.6944
mp-753732,Li8 Co4 Si4 O16,32,Monoclinic,7,342.0618948023334,3.201994317682924,10.68943421257292,2.0161219,-7.03219662625,-2.511143563333333,False,2.996299999999999
mp-775393,Li8 Cr12 Sb4 O32,56,Cubic,212,623.0030381819373,4.473843582689358,11.12505425324888,2.81714003,-7.789616760357142,-2.32606837297619,True,2.9106
mp-867580,Li4 Cr10 Si8 O28,50,Triclinic,2,599.4637685674097,3.380536124004364,11.989275371348194,3.17963742,-8.382377315,-2.660144944066666,False,2.6538
mp-756242,Li6 Cr3 Fe3 O12,24,Triclinic,2,224.38945761083824,4.123141271117401,9.349560733784926,2.86209145,-7.393772102916666,-2.177177298749999,False,2.0383
mp-17159,Li12 Cr6 O24,42,Trigonal,148,520.2010902641682,2.487465070969037,12.385740244384957,-1.615807569999999,-6.8400937752380955,-2.088274171904762,False,2.9665
mp-1198048,Li4 Cu6 Se8 O28,46,Monoclinic,15,618.2136937993611,3.99869793724551,13.439428126073066,1.38920699,-5.633219744130435,-1.312760364827898,False,0.6886000000000001
mp-629443,Li2 Eu1 Ge1 S4,8,Tetragonal,121,166.73528246713374,3.652472659104569,20.841910308391718,3.97579744,-5.8836330125,-1.473330040833333,False,0.2021
mp-14629,Li6 Eu3 Si3 O12,24,Trigonal,152,275.9009544534109,4.657120680986643,11.495873102225454,5.54152359,-7.90015166125,-2.984761698958333,False,0.043300000000000005
mp-21778,Li8 Fe8 Mo12 O48,76,Orthorhombic,60,1211.0308287579762,3.3203617508459953,15.934616167868109,0.34224335,-7.956688062894736,-2.026668560614035,False,2.656399999999999
mp-771712,Li4 Fe6 Sb2 O16,28,Hexagonal,186,305.5233444620702,4.686897387775584,10.911548016502508,3.0117184,-7.139220405,-1.9291776447619051,False,1.891799999999999
mp-755193,Li4 Fe2 F12,18,Tetragonal,136,184.36949381948278,3.309332205415984,10.242749656637933,-2.32338489,-5.273301633333333,-2.63208150074074,False,0.323099999999999
mp-1210923,Li8 Fe4 Ge4 O16,32,Orthorhombic,31,366.9657085174947,3.735242528765551,11.46767839117171,1.34686004,-6.72966544125,-2.141823088958333,True,2.1565
mp-774155,Li8 Fe4 O12,24,Monoclinic,5,215.4836879545076,3.628809133145505,8.978486998104483,1.95257704,-6.399917599166667,-1.877959272777777,False,0.09139999999999901
mp-1222769,Li4 Ga14,18,Monoclinic,8,338.43579039591435,4.925578111767376,18.801988355328575,2.51198106,-9.670581120000001,-0.240265067037037,True,0.1587
mp-1029776,Li8 Ge4 N8,20,Monoclinic,14,207.74239156303233,3.662045185437288,10.387119578151616,4.87368727,-5.5917280625,-0.568242246833334,False,2.695099999999999
mp-19896,Li2 Ge1 Pb1 S4,8,Tetragonal,121,170.71237400063112,4.10466786900527,21.33904675007889,2.76233331,-4.6497658375,-1.061395971458332,False,2.2649
mp-1078552,Li2 H6 Pt1,9,Cubic,225,73.51507460549726,4.856671247194381,8.16834162283303,-0.77772612,-8.985142582222222,-0.430497678425925,False,2.8838
mp-1189725,Li8 H4 N4,16,Orthorhombic,62,138.7954188565652,1.38286983846532,8.674713678535324,0.50274726,-4.470395329375,-0.582572850104166,True,2.0831
mp-1097065,Li2 Hf1 N2,5,Trigonal,164,49.2193319323135,7.435260740871785,9.8438663864627,5.43013074,-15.068285076,-1.431819164166668,False,1.9346
mp-1206880,Li2 Hg1 O2,5,Tetragonal,139,57.68750319890507,7.094680294360936,11.537500639781014,2.15678336,-4.307147351999999,-1.502459395833334,False,1.1767
mp-866193,Li2 La1 In1,4,Cubic,225,89.71275816806389,4.953245741685844,22.42818954201597,5.25164104,-14.68614327,-0.41194741708333205,False,0.11169999999999901
mp-1193106,Li8 Mg4 H8 N8,28,Orthorhombic,60,262.72082253654,1.7246565662281221,9.382886519162144,3.44274381,-4.814493862857143,-0.6837504177380951,True,2.3086
mp-1222661,Li2 Mg1 Cd1 P2,6,Tetragonal,115,109.91363995559459,3.211067763523768,18.3189399925991,4.56613574,-3.4708704616666672,-0.5976582968253961,False,2.004
mp-581301,Li8 Mg4 Mn12 O32,56,Cubic,212,577.999545055977,3.803687043495448,10.321420447428162,2.36302548,-7.396119925357143,-2.21625923503284,False,1.9551
mp-1105932,Li8 Mg4 Si4,16,Cubic,215,254.3853585544921,1.7304152395653691,15.899084909655755,3.66786798,-2.938963591875,-0.220555147291666,True,0.19839999999999902
mp-1222615,Li2 Mg1 Sn1,4,Cubic,216,76.83697523140434,3.390732094121482,19.209243807851085,4.31397066,-2.705920775,-0.341448874166666,False,0.047499999999999
mp-773051,Li4 Mn6 Se8 O24,42,Triclinic,2,611.5866362202084,3.728034752245043,14.56158657667163,1.95931999,-6.722768558333333,-1.7388128640397502,False,2.7896
mp-1287701,Li4 Mn6 Co2 O16,28,Monoclinic,12,286.1457249589866,4.243528823359388,10.219490177106664,2.99106848,-7.523973682857144,-1.951045370747127,False,0.3865
mp-771112,Li8 Mn12 Ni4 O32,56,Cubic,212,568.4549463023145,4.26936650479326,10.150981183969902,2.2454677,-7.426918791785714,-1.950653339675697,False,1.399299999999999
mp-763186,Li4 Mn6 Sb2 O16,28,Trigonal,159,308.65305293569173,4.610096502448382,11.023323319131848,3.35218477,-7.470535416428571,-2.11220821003284,False,1.0917
mp-704943,Li8 Mn12 Zn4 O32,56,Cubic,198,572.2723984492344,4.318832392663504,10.219149972307758,1.56963234,-7.171483083214285,-2.018102850389983,False,1.5525
mp-34148,Li4 Mn2 Cl8,14,Orthorhombic,74,284.15854842679283,2.46174356771433,20.297039173342345,3.09716706,-8.135626407142857,-1.840411679688013,False,1.926699999999999
mp-754966,Li4 Mn2 F12,18,Tetragonal,136,179.14439928508614,3.389041675863908,9.95246662694923,-2.42939467,-5.586542957407407,-2.8684345934738182,False,2.7177
mp-1210796,Li8 Mn4 Ge4 O16,32,Orthorhombic,31,373.8913622088035,3.649941994258792,11.68410506902511,1.53247792,-6.9417470809375,-2.267405468387212,False,2.0368
mp-18988,Li8 Mn4 O12,24,Monoclinic,12,195.46738339598636,3.969588299469367,8.144474308166098,2.45687681,-6.817403403333334,-2.180112729932952,True,1.368399999999999
mp-559240,Li8 Mn4 Si4 O16,32,Orthorhombic,31,350.3860667930348,3.05018930297962,10.949564587282337,2.63003593,-7.464712298437499,-2.690084414012211,False,2.176599999999999
mp-1105291,Li4 Mn2 Sn2 S8,16,Monoclinic,7,350.46866885516187,2.992459829740632,21.904291803447617,2.98111695,-5.287633780625,-1.094774886824711,False,0.070699999999999
mp-675779,Li4 Mo6 S8,18,Triclinic,1,295.8116216570478,4.82718491013998,16.4339789809471,6.89852915,-7.02278475833333,-1.144092054629625,False,1.354
mp-22439,Li4 Mo2 F12,18,Tetragonal,136,195.71549415325063,3.797852257735345,10.873083008513923,0.48295094,-8.443145497777778,-2.931861057037036,False,1.7655
mp-694855,Li4 Mo2 O6,12,Triclinic,2,106.85051064082087,4.905294434755955,8.904209220068406,3.53464081,-7.071758176666665,-2.1538617002777762,False,1.3636
mp-1280510,Li4 Ni6 Te2 O16,28,Monoclinic,12,299.4570997832612,4.941378712665133,10.694896420830757,3.6158683,-6.092773496428571,-1.529541374523809,False,0.207799999999999
mp-556550,Li4 Ni2 O6,12,Monoclinic,12,94.05981968799996,4.25723064034632,7.83831830733333,2.53893524,-5.658687998333339,-1.5850437602777832,False,1.3307
mp-841,Li4 O4,8,Hexagonal,194,63.107895451231315,2.414495373744071,7.888486931403914,1.4874027300000001,-5.0786121725,-1.650170236666666,False,1.974299999999999
mp-1198596,Li4 P14 H54 N18,90,Triclinic,2,1083.9670485305815,1.176423565885103,12.044078317006461,2.60055468,-5.049245021222222,-0.417241599842592,False,2.090499999999999
mp-22450,Li4 Pb2 O6,12,Monoclinic,15,127.42365027123795,7.013112294262959,10.618637522603162,2.8773962600000003,-5.517573629999998,-1.788510993611109,False,1.044
mp-13985,Li4 Pd2 F12,18,Tetragonal,136,189.31807552875622,4.11003243090467,10.517670862708679,-1.85438678,-7.45121756,-2.285658211481482,True,1.8867
mp-7608,Li2 Pd1 O2,5,Orthorhombic,71,51.326965807119315,4.927262391172839,10.265393161423862,2.7398732900000002,-5.411062696000002,-1.6323327853333351,False,1.1973
mp-760483,Li4 Pd2 O6,12,Monoclinic,12,107.41088670227718,5.203738011980649,8.950907225189765,1.9271770400000001,-5.605017165,-1.6314154052777772,False,1.3654
mp-983460,Li2 Pm1 Ga1,4,Cubic,225,74.82094338020576,5.073546472023233,18.70523584505144,2.36895067,-11.773600935,-0.334400625208333,False,0.163499999999999
mp-13986,Li4 Pt2 F12,18,Tetragonal,136,192.8919042209868,5.5604381433909715,10.716216901165932,-0.99897725,-10.66229992,-2.327044650370371,True,2.4964
mp-531826,Li24 Pt12 O36,72,Monoclinic,5,666.1738716940546,7.686265300064132,9.252414884639647,3.01097357,-5.804634323055556,-1.6824906450000001,False,1.842
mp-976955,Li4 Ru2 F12,18,Tetragonal,136,190.71535824846333,3.986756332316273,10.595297680470185,0.34432287,-7.9992960661111105,-2.559949863703704,False,0.0398
mp-2286,Li2 Se1,3,Cubic,225,52.71669259653644,2.924458277403507,17.572230865512147,0.4075048,-7.813334673333333,-1.451676987465277,False,2.9746
mp-1194726,Li8 Se8 O28,44,Orthorhombic,62,639.9857605343428,2.94542387019153,14.545130921235064,-1.11869892,-5.662630594545454,-1.5312309833049231,False,2.9444999999999992
mp-1095291,Li4 Sn2 Se6,12,Monoclinic,9,308.27822989466233,3.980317975904259,25.68985249122186,1.08467778,-4.1188809525,-1.06635561561632,True,1.479699999999999
mp-8673,Li4 Sn2 Te2 O12,20,Orthorhombic,34,228.829632860771,5.169476923730571,11.44148164303855,3.6484114400000003,-6.0698080605,-2.003959109333333,True,2.0439
mp-1210877,Li8 Tc4 O12,24,Monoclinic,15,211.53202955370318,5.020276477958532,8.813834564737633,5.04050279,-6.918091730416666,-2.081030448194444,False,0.40900000000000003
mp-2530,Li2 Te1,3,Cubic,225,69.09284373750016,3.400299879294002,23.030947912500054,2.26399067,-3.498470799999999,-1.178086924444443,False,2.4914
mp-13843,Li8 Te4 O16,28,Tetragonal,91,299.6935188813291,4.554077838759675,10.703339960047469,2.10053206,-5.77168709535714,-1.949830574404759,False,2.4198
mp-558731,Li8 Te4 S12,24,Monoclinic,14,488.3093272429518,3.232966660380209,20.346221968456323,3.85457011,-4.158398575,-0.929026853472221,False,1.5980999999999992
mp-1976674,Li6 Th3 N6,15,Trigonal,147,194.3625044757757,7.021064271719166,12.957500298385046,4.55047033,-20.558913770666667,-1.25767850683333,False,2.6474
mp-1222778,Li2 Ti1 I6 O18,27,Trigonal,143,408.0769193734314,4.521532185604665,15.113959976793755,2.18405391,-5.381958783703704,-1.31082131962963,False,2.7776
mp-768110,Li8 Ti12 Co4 O32,56,Cubic,198,602.1900091517487,3.798857953059038,10.753393020566941,2.32726397,-8.284103774285715,-2.982573306904761,False,2.4572
mp-775865,Li8 Ti12 Mn4 O32,56,Cubic,198,619.9175541017255,3.6474171120827332,11.069956323245098,2.46854689,-8.536770440714287,-3.090340075328408,True,2.4041
mp-775326,Li8 Ti12 Ni4 O32,56,Cubic,212,597.2882681597611,3.827367238770961,10.665861931424304,2.9900634,-8.163262985892858,-2.958395378511906,False,2.7605999999999993
mp-558619,Li8 Ti24 Pb4 O56,92,Orthorhombic,64,1095.1236162498722,4.44140633358603,11.903517567933394,2.32373704,-8.604016783586957,-3.205108132572463,False,2.632399999999999
mp-759849,Li4 Ti12 Zn6 O32,54,Monoclinic,4,606.8717681699204,4.122407629528196,11.238366077220748,1.51586719,-7.987437224444444,-3.01938519691358,True,2.8926
mp-756117,Li4 Ti2 Te2 O12,20,Orthorhombic,34,217.91718893133833,4.348690312115743,10.895859446566917,2.77802128,-6.8726946955,-2.418253728166667,True,2.4255
mp-560793,Li2 U1 Mo2 O10,15,Triclinic,2,242.0330139105358,4.142444927984764,16.135534260702386,-0.52758721,-8.300839744666666,-2.54882867711111,False,2.4115
mp-558910,Li2 U3 P4 O20,29,Triclinic,2,425.12712069472116,4.577232462736722,14.659555886024867,0.90777701,-8.543305119655173,-3.084229603628899,False,2.1734
mp-559539,Li4 U6 P4 O30,44,Tetragonal,141,638.9695136621382,5.352997893248521,14.522034401412231,2.03229093,-8.804059600909099,-3.224857878679661,False,2.2567
mp-554685,Li4 U6 V4 O30,44,Tetragonal,141,692.8951442998443,5.1278051604132,15.747616915905553,1.39976825,-8.987901224545455,-3.07520563462121,False,2.2782
mp-1222748,Li2 U1 Br6,9,Trigonal,162,267.85213829617277,4.53388274795321,29.761348699574754,1.06941001,-4.573152052222222,-1.803048168518517,False,0.31970000000000004
mp-9607,Li8 U4 O16,28,Orthorhombic,62,323.34467411144175,6.489402353917839,11.548024075408634,2.701907819999999,-8.129062796071429,-3.1431914013095232,False,2.0439
mp-756138,Li4 V6 Sb2 O16,28,Trigonal,166,320.0858484912057,4.321034034165677,11.43163744611449,3.48276991,-7.751825351071429,-2.410235835119048,False,1.347899999999999
mp-776870,Li4 V6 Sn2 O16,28,Monoclinic,9,306.2077446356342,4.483794355080012,10.935990879844079,3.84040273,-7.762291146785714,-2.429232301190476,False,1.2894
mp-753861,Li4 V2 F12,18,Tetragonal,136,183.4291689654293,3.237516695498057,10.190509386968294,-1.20372569,-5.858947303333334,-3.149517741851853,False,2.1121
mp-18860,Li8 V4 Si4 O20,36,Tetragonal,129,374.8566515002568,3.063754282608405,10.412684763896022,2.45856119,-7.551173471111111,-2.7659651535185192,False,2.3621
mp-1185233,Li2 Y1 In1,4,Cubic,225,79.68510203657961,4.534637037671413,19.921275509144902,3.9077860600000003,-12.3104989175,-0.39409787583333306,False,0.047899999999999006
mp-1222618,Li2 Zn1 Cd1 P2,6,Trigonal,160,102.9025655381206,4.093143272219594,17.150427589686768,2.879425099999999,-9.224945521666667,-0.592752897380952,True,1.0652
mp-1210804,Li4 Zn2 Ge2 S8,16,Orthorhombic,31,328.2531519136537,2.834812698049025,20.515821994603357,3.44060332,-4.417332415,-1.135575481458332,True,2.1846
mp-555965,Li12 Zn6 Sn18 O48,84,Orthorhombic,36,949.4965867151915,5.912025112751361,11.30353079422847,3.56328371,-6.182387772261904,-2.133102561666666,False,1.943
mp-555186,Li4 Zn2 Sn2 S8,16,Monoclinic,7,352.33512162435875,3.075305884410742,22.020945101522422,1.650945479999999,-4.354258114375,-1.149183180833332,True,2.1758
mp-3216,Li2 Zr1 N2,5,Trigonal,164,50.574810329420224,4.370752214047623,10.114962065884045,4.05832841,-10.518408818000001,-1.362267603166667,False,1.5618999999999992
mp-757,Li6 As2,8,Hexagonal,194,126.43290177520575,2.51497270858603,15.804112721900719,1.37594068,-6.30814512625,-0.841232569375,False,0.6364999999999991
mp-1199218,Li12 As28 H156 N52,248,Orthorhombic,33,3046.6521005222216,1.671457112007646,12.284887502105732,0.5629593900000001,-4.928599398508064,-0.42494249328629,True,1.8092000000000001
mp-28471,Li12 As4 S12,28,Orthorhombic,33,524.7184121092278,2.429670443210828,18.739943289615276,1.73764502,-4.400070605000001,-1.141217771428571,False,2.3133