material_id,composition,nsites,crystal_system,space_group,volume,density,density_atomic,efermi,energy_per_atom,formation_energy_per_atom,is_gap_direct,band_gap
mp-648,Na2 S1,3,Cubic,225,68.60267970013784,1.8890808023843082,22.867559900045947,0.35970853,-6.323377323333333,-1.2689239159375,True,2.4399
mp-28127,Na8 S20,28,Orthorhombic,62,642.57460262411,2.132525901252682,22.94909295086107,2.10622043,-7.364453934642857,-0.6068315702232141,False,1.7772000000000001
mp-1266,Na2 Se1,3,Cubic,225,77.2135617348962,2.686924163065691,25.73785391163207,0.07276857,-8.416217666666666,-1.2695772096875,True,2.0153
mp-1190423,Na4 Se4 O14,22,Triclinic,2,304.6580761094574,3.4435755476066943,13.848094368611699,-0.62144498,-5.519552674090909,-1.491280715222374,False,2.8061
mp-18562,Na8 Si8 Se20,36,Orthorhombic,63,974.8272141079,3.386059689365424,27.078533725219444,1.07292463,-4.435905582222222,-0.989946137164152,False,2.6679
mp-574684,Na32 Sn16 As32,80,Tetragonal,142,2232.0928089932318,3.743886619762129,27.901160112415397,2.42788082,-3.5452173265,-0.33856563105172405,True,0.477599999999999
mp-778057,Na16 Sn8 O16,40,Orthorhombic,60,649.0353916301619,4.025773316344975,16.225884790754048,3.62828426,-5.038759650499999,-1.720972566051723,False,2.2658
mp-761184,Na8 Sn4 O12,24,Monoclinic,15,287.45097002815373,4.9145953319426425,11.977123751173073,2.9069103800000002,-5.65589207875,-2.066409340876436,False,2.7011000000000003
mp-571470,Na48 Sn24 Se72,144,Orthorhombic,62,4344.293166967193,3.683850317316952,30.168702548383287,1.78900763,-3.8780447564583342,-1.014586782256645,True,1.3646999999999991
mp-1221310,Na8 Sr12 As16,36,Monoclinic,14,971.0615568756773,4.162377088717068,26.97393213543548,2.80498865,-13.416899436944444,-1.039625181388888,False,0.543899999999999
mp-1221315,Na8 Sr12 P16,36,Monoclinic,14,895.5099139688551,3.209669374924957,24.875275388023752,4.32928589,-10.822408625000001,-0.980892002989417,False,0.932099999999999
mp-557927,Na8 Sr4 V12 O36,60,Monoclinic,14,852.3828532692862,3.35401849805098,14.206380887821437,1.17879742,-7.660386036,-2.583103575850574,False,2.251
mp-18975,Na4 Sr2 V8 O24,38,Tetragonal,125,589.7255638491392,2.981116150610746,15.519093785503664,-0.66863497,-7.8035659018421075,-2.535827691987297,True,2.8729999999999993
mp-1078535,Na2 Tc1 F6,9,Trigonal,164,112.1623578103663,3.8191885515983772,12.462484201151812,0.81761732,-8.453204640000001,-2.69218343,False,1.5541
mp-2784,Na2 Te1,3,Cubic,225,95.90002973074063,3.005584104098432,31.966676576913542,0.7018901200000001,-11.976331103333335,-1.127802620000001,True,2.0282
mp-28713,Na8 Te8 O20,36,Monoclinic,15,539.9559653055198,4.68896409500429,14.998776814042218,2.6556132,-5.488673238888885,-1.7431334201213242,False,2.9290000000000003
mp-20254,Na4 Te4 O14,22,Orthorhombic,74,271.9051456839135,5.046567171863214,12.359324803814248,3.11732603,-5.645614324090908,-1.681452471462903,False,0.7191000000000001
mp-541918,Na4 Te8 Mo2 O24,38,Monoclinic,15,577.3370369049139,4.856828968075345,15.193079918550367,2.992433799999999,-6.238902251052631,-1.74006818260133,True,2.4592
mp-27537,Na8 Te4 O16,28,Orthorhombic,60,359.89437014679044,4.384687871044092,12.853370362385373,2.15172913,-5.469735261964284,-1.809936480453611,True,1.8037
mp-1190141,Na8 Te4 S12,24,Monoclinic,14,616.9087338725751,2.904618695480478,25.704530578023963,1.89483436,-3.951104963749999,-0.9108006049042131,False,1.7828
mp-573581,Na8 Te4 Se12,24,Monoclinic,15,671.663154742201,4.059082855596543,27.98596478092504,1.4436564,-13.3448317375,-0.764787380364583,False,1.2031
mp-680191,Na16 Ti16 Se72,104,Monoclinic,4,2794.1520998390906,4.052367369450324,26.86684711383741,2.53006531,-4.962594963076923,-1.12123889465531,False,0.7175
mp-5996,Na8 Ti8 Si8 O36,60,Orthorhombic,60,685.3620054952854,3.313306901068589,11.42270009158809,2.19976529,-8.0842712065,-3.160490493461686,False,2.9482
mp-3488,Na4 Ti6 O14,24,Monoclinic,11,289.7451538065769,3.456687956033042,12.072714741940706,1.33012289,-8.243984759999998,-3.160181039813217,False,2.9953000000000003
mp-5449,Na2 Ti6 O13,21,Monoclinic,12,256.7661482616155,3.4998388252537183,12.22695944102931,1.3778240400000001,-8.761638850000026,-3.314977577512341,False,2.916699999999999
mp-557845,Na8 Ti4 S8 O4,24,Monoclinic,14,506.11847335191186,2.283211207162628,21.088269722996326,0.86964189,-5.957990747499999,-1.990721795181992,False,2.4798
mp-6138,Na4 Ti2 Si2 O10,18,Tetragonal,129,211.27653516080173,3.174143848531535,11.737585286711207,2.02052296,-7.522812717222223,-2.9956953140102183,False,2.9703
mp-1221267,Na2 Ti1 Te1 O6,10,Trigonal,146,129.66479318766145,4.065300903478737,12.966479318766144,1.67368848,-6.698282016,-2.357281466275862,False,2.4574
mp-557315,Na12 V18 O42,72,Trigonal,147,1034.0966506985785,2.994470237225162,14.362453481924701,1.01607863,-7.802551306111111,-2.421644072590996,False,2.4946
mp-558049,Na8 V12 P8 O52,80,Orthorhombic,56,1081.0514824577363,2.880037972609264,13.513143530721702,1.73213893,-7.788004691625001,-2.533524697477217,False,1.7762
mp-1120790,Na8 V4 F20,32,Monoclinic,14,401.9407051085357,3.171404343348251,12.560647034641741,-0.06640205,-7.76868849125,-3.162678913749999,True,2.4549
mp-1191842,Na4 V2 Ni2 F14,22,Orthorhombic,74,289.19276959282763,3.314308239773642,13.145125890583074,0.25934132,-5.730548059545454,-2.9174161566144203,True,2.4654
mp-554228,Na8 V4 O4 F16,32,Monoclinic,15,441.97827878240196,2.839045967391547,13.811821211950061,-0.47973632,-6.0048679196875,-2.958528153157328,True,2.991799999999999
mp-1190399,Na4 Zn2 Ge4 S12,22,Monoclinic,9,532.3858949030106,2.801273488303176,24.199358859227754,1.58194922,-4.434843984545455,-0.9785350497962371,True,2.266499999999999
mp-1190487,Na4 Zn2 Sn4 S12,22,Orthorhombic,43,586.9392385632551,3.062263542868772,26.67905629832978,1.55708262,-4.320413996363636,-0.9756425161598731,False,1.7270999999999992
mp-554845,Na8 Zn8 O12,28,Tetragonal,96,354.20745990688965,4.215406485026651,12.650266425246059,0.76115725,-4.569212344999999,-1.705382088965517,False,1.2488000000000001
mp-1094107,Na8 Zn8 S12,28,Monoclinic,15,566.9532876110336,3.198251320346448,20.248331700394058,1.53184233,-8.12273038107143,-1.114935581562499,True,2.1599
mp-555300,Na6 Zn9 Si6 O24,45,Triclinic,1,590.5519237174191,3.596679110900123,13.123376082609314,1.76981041,-6.267439329777778,-2.474306230628352,False,2.9909
mp-15548,Na16 Zn8 Fe8 F56,88,Monoclinic,15,1176.3887312030452,3.390246409661807,13.368053763670968,-1.13562381,-5.131607793409091,-2.7852284295689653,True,2.9496
mp-6402,Na4 Zn2 Ge2 O8,16,Monoclinic,7,222.00914696391914,3.7102713852034173,13.875571685244946,0.0268049,-5.612706376875,-2.067949246594827,False,2.6397
mp-29488,Na8 Zn4 O8,20,Monoclinic,14,258.03345167702247,3.6909986017271583,12.901672583851123,0.74424512,-4.414788165999999,-1.6469667305517222,True,1.4567
mp-1021465,Na4 Zn2 Se4,10,Orthorhombic,72,235.38785718769142,3.7996637090013543,23.53878571876914,0.66725541,-3.304796011999999,-1.117794387489223,True,2.139599999999999
mp-556536,Na2 Zr1 Cu2 S4,9,Monoclinic,12,168.5766857351447,3.866808774572941,18.730742859460523,4.48062375,-5.241192234444444,-1.243081812528735,True,0.0011
mp-1210267,Na4 Zr2 S6,12,Monoclinic,12,251.24889085445707,3.085127182437877,20.937407571204755,2.12346732,-5.6258534666666655,-1.6848166517097671,False,1.9267999999999992
mp-7219,Na4 Zr2 Se6,12,Monoclinic,12,286.5738536644139,4.3352198535060165,23.881154472034492,1.94454642,-13.690700610833334,-1.555228321197918,False,1.3166
mp-675310,Na3 V5 Se10,18,Triclinic,1,409.723617701732,4.511918648301651,22.76242320565178,3.31269542,-5.769806121666666,-1.080705707087523,False,0.1373
mp-3527,Na6 Ag2 O4,12,Orthorhombic,72,172.02520760234827,4.031744562627576,14.335433966862356,1.28504739,-4.052436596666663,-1.258432925967428,False,1.1444
mp-9634,Na6 Ag2 S4,12,Orthorhombic,72,275.87322207505485,2.900868431809591,22.989435172921237,0.53993639,-9.043940829166667,-1.024204659270832,False,2.1755
mp-8543,Na6 Al2 As4,12,Orthorhombic,72,288.8699495642333,2.825843373926701,24.072495797019442,2.06260567,-8.470480737499999,-0.6638637349999991,False,0.8472000000000001
mp-23705,Na6 Al2 H12,20,Monoclinic,14,221.44512303452063,1.529701527373779,11.072256151726032,0.13945282,-4.08655173,-0.271020285249999,True,2.8145000000000002
mp-5122,Na6 Al2 P4,12,Orthorhombic,72,266.663803611092,1.966494208194009,22.22198363425767,2.38936207,-6.5531306308333335,-0.648331853492063,False,1.346
mp-9682,Na12 Al4 Se12,28,Monoclinic,14,704.7617307973462,3.136825391798056,25.170061814190937,0.8135233900000001,-9.911444240714285,-1.288684136026784,False,2.383099999999999
mp-9680,Na12 Al4 Te12,28,Monoclinic,14,876.5991270699744,3.627585103072902,31.307111681070516,2.12814458,-14.3629324725,-0.9806020482142861,False,1.914499999999999
mp-655,Na18 As6,24,Hexagonal,185,588.9212956640015,2.434313130356024,24.538387319333395,1.05820111,-6.902991813333333,-0.5529736389583331,True,0.064
mp-30233,Na24 As56,80,Monoclinic,14,2189.0797853155223,3.601140324989667,27.36349731644403,1.64493586,-11.721791855374999,-0.357265993125,False,1.5304
mp-5830,Na12 As4 S12,28,Cubic,198,617.4525056158254,2.582689523048097,22.051875200565195,1.54543059,-8.082499655000001,-1.010346805848215,False,2.5223
mp-8686,Na12 As4 Se12,28,Cubic,198,701.3479476949157,3.606112885743327,25.04814098910413,1.20038295,-10.718626007142857,-0.956518379955357,False,2.008099999999999
mp-531600,Na24 B40 Se72,136,Tetragonal,142,3331.997421456058,3.323729226641299,24.499981040118072,2.08229781,-4.7599010422058825,-0.7078231310920591,True,2.9704
mp-28630,Na12 B4 N8,24,Monoclinic,14,325.17526436838676,2.201836149495121,13.548969348682782,1.43576793,-5.180905768333333,-0.617387502217432,False,1.6485
mp-30975,Na12 B4 O12,28,Monoclinic,14,331.1609980746672,2.562876732148677,11.827178502666685,1.00538155,-5.9086128871428585,-2.258836155472085,False,2.9485
mp-29976,Na6 B2 S6,14,Monoclinic,15,285.60675021778866,2.046267276263283,20.400482158413475,1.38134516,-4.457626777142857,-1.154822090114941,False,2.5824
mp-985586,Na3 Br1 O1,5,Cubic,221,93.15250142153529,2.93902544973586,18.630500284307058,0.9397745,-3.737887096,-1.615873120827586,True,1.8815
mp-15572,Na6 Ca6 Al2 As8,22,Hexagonal,186,562.3445812541554,3.04661727561699,25.561117329734337,2.67369271,-3.803460384090908,-0.8518214808307201,True,0.9426000000000001
mp-1190339,Na6 Ca6 Al2 Sb8,22,Hexagonal,186,673.1317342094247,3.469550671203687,30.596897009519306,3.66187123,-3.528061064090909,-0.7731935399216291,True,0.45860000000000006
mp-28602,Na3 Cl1 O1,5,Cubic,221,88.63996781954468,2.2559230926403853,17.727993563908935,0.96869593,-3.861942745999999,-1.6976095178275852,True,2.0299
mp-19087,Na3 Co2 Sb1 O6,12,Monoclinic,12,138.282995400937,4.858449750477542,11.523582950078085,4.0569142,-6.1239544325,-1.781557512011494,False,0.8215000000000001
mp-1210465,Na6 Co2 F12,20,Monoclinic,14,231.7781124193118,3.466010166264349,11.58890562096559,0.8824886200000001,-4.9184032945,-2.654233963913793,False,2.7172
mp-31126,Na6 Co2 O6,14,Triclinic,2,187.80765940023784,3.110522646850554,13.414832814302702,1.45922335,-5.277224447142856,-1.5625870084482751,False,0.8294
mp-16383,Na12 Cr8 As12 O48,80,Cubic,230,939.9329208564448,4.167325540620695,11.749161510705559,2.20520061,-6.87737543625,-2.041517589581897,True,2.7029
mp-1221294,Na6 Cr4 P6 O24,40,Monoclinic,15,488.41259930904755,3.113434470321248,12.210314982726189,4.40076865,-7.555823656749999,-2.608163161153324,False,2.9419
mp-559281,Na12 Cr8 P12 S48,80,Monoclinic,14,1975.4811228940143,2.187722222871149,24.69351403617518,2.17812929,-5.396949751375,-0.9350501182783241,False,1.3855
mp-1210429,Na12 Cr4 O16,32,Orthorhombic,62,469.4425283054141,2.617047087769102,14.67007900954419,1.935945939999999,-6.14021373875,-1.9564570105172412,True,1.033799999999999
mp-1210463,Na6 Cu2 F12,20,Monoclinic,14,236.35655288663932,3.463685562268957,11.817827644331967,-0.24401951,-6.556383540500001,-2.5268329995,True,1.2227000000000001
mp-755401,Na12 Cu4 O8,24,Tetragonal,136,397.18492404338787,2.751183003565596,16.549371835141162,1.30843653,-4.354305002499996,-1.3509231665229842,True,1.3047
mp-28556,Na36 Cu12 O36,84,Orthorhombic,64,1047.7359807938496,3.433113730696284,12.473047390402972,1.576230279999999,-4.723715742857143,-1.44253688273399,False,0.774
mp-19028,Na6 Fe2 P4 O16,28,Monoclinic,15,329.27278125293617,3.174670835946719,11.759742187604862,1.55226975,-6.975658117857143,-2.482099643815974,False,1.6539000000000001
mp-556723,Na12 Fe8 As12 O48,80,Cubic,230,959.3633757003495,4.136218411679483,11.992042196254369,1.65695853,-6.6026603787500004,-1.885105158081896,True,2.2743
mp-556540,Na6 Fe6 P8 O32,52,Monoclinic,15,688.7708334668374,2.9720749488549183,13.245592951285335,0.61301357,-7.447954185384615,-2.437781256642667,False,1.7179000000000002
mp-30947,Na12 Fe4 O12,28,Monoclinic,14,375.9041172984559,3.053565068962521,13.425147046373425,1.1542144,-5.607157600714286,-1.7015766634482752,True,2.3505000000000003
mp-556143,Na12 Ga12 Te8 O48,80,Cubic,230,987.1728846100382,4.880363549549343,12.339661057625477,2.18667682,-5.922915627375,-1.984335914873563,True,2.0272
mp-18165,Na12 Ga4 S12,28,Monoclinic,14,623.0431226131236,2.504093452029092,22.251540093325843,0.76736395,-4.0199008825,-1.238709873805417,False,2.7699
mp-17148,Na12 Ga4 Se12,28,Monoclinic,14,709.1340737080903,3.517825543146376,25.326216918146084,0.49355993000000004,-3.666421303214284,-1.160565190167024,False,2.0844
mp-18411,Na12 Ge4 Se12,28,Monoclinic,14,715.7091982213606,3.512579039199811,25.561042793620018,0.85263358,-3.794290547857142,-1.060587030167025,True,1.8880999999999992
mp-698032,Na12 H28 Ru4,44,Tetragonal,136,468.0724518842931,2.513055220999502,10.63801027009757,0.07725805,-5.820472583181819,-0.338394054659091,False,2.5681000000000003
mp-22804,Na6 In4 As6 O24,40,Monoclinic,15,522.5114947209181,4.546839896409803,13.062787368022953,1.5159007,-6.12178471749999,-1.975314243498552,False,2.2648
mp-21622,Na24 In8 As16,48,Monoclinic,14,1135.6733487797924,3.902576336219647,23.65986143291234,2.776137089999999,-11.047813283541666,-0.6001142727083331,False,0.981399999999999
mp-21577,Na24 In8 P16,48,Monoclinic,14,1049.5572114005881,3.110281431920598,21.865775237512253,3.20385667,-9.075738115625,-0.529857329950396,False,1.3087
mp-21547,Na24 In8 Sb16,48,Monoclinic,14,1369.0282378319437,4.146359927451519,28.521421621498828,3.37118003,-14.639623226041666,-0.525662634374998,False,0.6322000000000001
mp-1210682,Na12 Li12 Rh8 F48,80,Cubic,230,1018.2971283419844,3.4152386578937213,12.728714104274804,0.40679752,-5.010047990749999,-2.637709231956896,True,1.9933
mp-985626,Na3 Mn2 Sb1 O6,12,Monoclinic,12,146.57642015737525,4.493033589509303,12.214701679781271,4.15002126,-6.712026325,-2.0315296425,False,0.8500000000000001
mp-1211859,Na6 Mn10 Ge12 O40,68,Triclinic,2,853.0945838235971,4.28028037251728,12.545508585641134,2.89247729,-7.320201767352941,-2.12806570775862,False,0.3931
mp-1210340,Na12 Mn4 O16,32,Orthorhombic,62,467.28487026607814,2.670949006508858,14.602652195814942,1.92407363,-5.9115820475,-1.789204341508619,False,1.846099999999999
mp-1029845,Na12 Mo8 N20,40,Tetragonal,80,641.3065653612646,3.427027624924468,16.032664134031613,1.59521523,-7.2721184655,-0.5313333374137941,False,1.8184
mp-1106352,Na6 Mo2 Cl12,20,Trigonal,163,493.0324166528505,2.5437065641256913,24.651620832642525,1.3172489,-9.039825832,-1.671910378499998,False,1.7232
mp-541291,Na12 Mo4 N12,28,Monoclinic,9,419.2559270948067,3.278325657817331,14.973425967671668,1.96542943,-6.229639401071428,-0.531690018091132,True,1.4075
mp-971678,Na6 Ni4 Sb2 O12,24,Monoclinic,12,269.0688820488965,4.9879019934239235,11.211203418704022,3.93880748,-5.9002486816666675,-1.783398434511494,False,2.2487999999999992
mp-554649,Na6 Ni2 F12,20,Monoclinic,14,234.30148481073897,3.425283099166948,11.715074240536948,-1.4351513900000001,-6.7642942,-2.621251543,False,0.636
mp-1598,Na6 P2,8,Hexagonal,194,183.7644767219801,1.806218207845844,22.97055959024751,1.44909869,-5.38525872875,-0.46160422324404704,True,0.4033
mp-473,Na12 P44,56,Orthorhombic,60,1275.9125150296695,2.132719233638486,22.78415205410124,2.94244015,-8.13539176482143,-0.298578826088434,False,1.623899999999999
mp-11738,Na6 P2 S6 O2,16,Orthorhombic,36,336.12799453678593,2.096002486460243,21.00799965854912,1.3160287,-4.843192189374999,-1.492732743285097,True,2.8392
mp-28782,Na6 P2 S8,16,Tetragonal,114,339.26043194597605,2.233918706132584,21.203776996623503,2.1597429,-4.36861949125,-1.119360224847598,True,2.291899999999999
mp-1078419,Na3 P1 Se4,8,Cubic,217,192.4378532586137,3.5877766198750303,24.054731657326712,1.89370168,-10.525202985,-0.907595616778273,True,1.116899999999999
mp-7956,Na6 Sb2,8,Hexagonal,194,232.17691812387204,2.728208035261483,29.022114765484005,1.71192918,-9.66926654875,-0.569552188749999,True,0.3946
mp-556577,Na6 Sb6 As4 O28,44,Monoclinic,14,563.0246950333345,4.766594581033364,12.796015796212147,4.04447232,-6.244022873409091,-1.924756273824451,False,1.8894000000000002
mp-1210360,Na6 Sb6 P4 O28,44,Monoclinic,14,535.9427069042343,4.462794291171883,12.180516066005326,2.46195114,-6.65846490840909,-2.271439127655618,False,2.1435
mp-7404,Na6 Sb2 O8,16,Monoclinic,13,192.33816514824463,4.3983364555497655,12.02113532176529,2.42203936,-5.4917616281249995,-1.9985106786422402,True,2.1351
mp-560642,Na12 Sb4 P8 O36,60,Orthorhombic,19,794.7599539343404,3.315156511919054,13.245999232239006,1.05429281,-6.7017205383333405,-2.467269893561583,False,2.7687
mp-1193673,Na12 Sb4 S12,28,Cubic,198,644.6723289992628,2.956224431503586,23.024011749973674,2.16270584,-9.67582996607143,-1.032422153705356,False,2.3949
mp-1193265,Na12 Sb4 Se12,28,Cubic,198,727.1157295107176,3.906184020460744,25.968418911097057,1.59705108,-12.329539761785714,-0.996177171383929,False,1.9982000000000002
mp-8703,Na3 Sb1 Se4,8,Cubic,217,210.1714623304772,4.002342260369101,26.27143279130965,1.89523211,-12.587981,-0.8823437045312481,True,0.9870999999999991
mp-28303,Na24 Si8 Se32,64,Monoclinic,14,1680.8555052797615,3.263233307852974,26.263367269996273,1.00764239,-4.0242721740625,-1.095006389501616,False,1.809699999999999
mp-17291,Na12 Si4 Te12,28,Monoclinic,14,892.3386739156424,3.5718171945531223,31.869238354130086,2.18465501,-3.543541466428571,-0.8463417455911321,False,1.9397000000000002
mp-41095,Na6 Sr6 Al2 P8,22,Hexagonal,186,570.6065083576336,2.809473721927247,25.93665947080153,2.70771729,-3.956510118636363,-0.8192449788826681,True,1.1229
mp-10097,Na6 Sr6 Ga2 As8,22,Hexagonal,186,618.3953999616714,3.765986194116566,28.10888181643961,2.3094313,-3.614142906363636,-0.813139928330721,True,0.43770000000000003
mp-10096,Na6 Sr6 Ga2 P8,22,Hexagonal,186,570.4912485252823,3.058858007268183,25.931420387512834,2.53242617,-3.8442204849999992,-0.772180782291759,True,0.746699999999999
mp-1210275,Na6 Sr6 Ga2 Sb8,22,Hexagonal,186,735.8629009874937,4.010372691620857,33.448313681249715,3.33814065,-3.390244197272727,-0.78601259833072,True,0.30660000000000004
mp-1210257,Na6 Ti2 F12,20,Monoclinic,14,248.79871891141096,3.081179835188893,12.439935945570548,3.088307,-5.596689327999997,-3.256312467747123,False,0.154399999999999
mp-732175,Na6 Ti2 F16,24,Orthorhombic,63,315.4214732989187,2.830447620638272,13.142561387454947,-2.57636576,-5.390031232083333,-3.120741786039271,False,1.2639
mp-776557,Na6 V4 P6 O24,40,Monoclinic,15,497.3969666387528,3.043114264765429,12.43492416596882,2.30912405,-7.566139082249999,-2.675392726653324,False,1.9166
mp-1202673,Na12 V12 Cr8 O48,80,Cubic,230,971.533057353345,3.539938993401392,12.144163216916812,1.5122143700000001,-7.8746011693749995,-2.376675792081897,True,2.3608000000000002
mp-14391,Na12 V4 P32 O92,140,Cubic,213,1805.8487343574436,2.705956824572713,12.898919531124598,1.96805563,-7.4831786027857135,-2.619294039250879,False,2.4538
mp-29143,Na24 V8 S32,64,Tetragonal,114,1430.426163183347,2.304752707771497,22.350408799739796,1.4704700800000001,-4.991795598749999,-1.2839822642672392,False,1.4686
mp-753301,Na4 Ni5 O10,19,Triclinic,2,191.40641925664914,4.731771009995959,10.07402206613943,3.25182681,-5.665120024210526,-1.257373889237748,False,0.517199999999999