material_id,composition,nsites,crystal_system,space_group,volume,density,density_atomic,efermi,energy_per_atom,formation_energy_per_atom,is_gap_direct,band_gap
mp-1199156,Na4 Cu2 N8 O24,38,Monoclinic,14,495.09285122867936,2.398409385949936,13.028759242859984,0.00916165,-6.34331768,-1.105881297513611,False,0.6062000000000001
mp-557171,Na4 Cu2 P8 O24,38,Monoclinic,15,505.95568576135685,2.7924008671806133,13.314623309509392,1.3845497,-7.079870379210526,-2.4577612008594762,False,0.8701999999999991
mp-15685,Na4 Cu2 As2,8,Orthorhombic,63,164.53036533736758,3.723102160181024,20.566295667170948,2.53325381,-8.64012057,-0.46944853812500004,False,0.6542999999999991
mp-3237,Na4 Cu2 F8,14,Monoclinic,14,165.63236930279174,3.719826018700392,11.830883521627982,0.29161692,-6.867589831428572,-2.5134085542857143,True,0.9147000000000001
mp-7639,Na4 Cu2 P2,8,Orthorhombic,63,154.5775874052474,3.018608083178496,19.322198425655927,2.99861287,-7.2081465125,-0.46383814949404706,False,0.6575000000000001
mp-6467,Na4 Cu2 P4 O14,24,Monoclinic,15,299.2114864914761,3.146343918577843,12.46714527047817,1.5729482,-6.737202940833334,-2.383092748087028,False,0.4979
mp-555871,Na8 Cu4 Sb4 S12,28,Monoclinic,14,616.3185058743499,3.529306504003968,22.01137520979821,3.27111142,-4.224064277142856,-0.8916745386083721,False,1.2419
mp-561395,Na4 Fe2 Ni2 F14,22,Orthorhombic,44,288.1303564952604,3.3830482064691783,13.0968343861482,-0.57020108,-5.465642962272727,-2.708318773887147,True,2.7689999999999992
mp-764074,Na4 Fe2 O6,12,Monoclinic,9,135.87237108425325,3.662061807835942,11.322697590354437,0.957774199999999,-5.9845288666666665,-1.6516379029597692,False,1.8938000000000001
mp-15431,Na16 Ga16 As24,56,Monoclinic,14,1270.7621834061197,4.288053836131996,22.692181846537853,2.23885418,-3.64965063160714,-0.39965046021551504,True,1.0249
mp-1190388,Na4 Ga4 Ge2 S12,22,Orthorhombic,43,536.3449187660345,2.7892462233673783,24.379314489365207,1.29388267,-4.554085568181818,-1.082011126159873,True,2.6215
mp-1173753,Na4 Ga4 Se6,14,Monoclinic,12,337.2883777894185,4.158191571357681,24.092026984958466,2.96920368,-3.799856956428571,-1.053090094255695,False,1.362699999999999
mp-18568,Na8 Ge8 S20,36,Orthorhombic,63,879.7990720841416,2.654332699435169,24.438863113448377,0.83761459,-4.5763669522222195,-0.9517786072509531,False,2.514199999999999
mp-17964,Na8 Ge8 Se20,36,Orthorhombic,33,978.3476000115535,3.978850703455322,27.176322222543153,0.96844481,-4.130884108333337,-0.8632113688308221,False,1.4997
mp-1029851,Na64 Ge32 N64,160,Orthorhombic,61,2125.8343684582464,3.665229638462605,13.28646480286404,2.80253738,-5.0876777163125,-0.291072735864224,True,2.1512000000000002
mp-5784,Na4 Ge2 O6,12,Orthorhombic,36,163.7376232579079,3.379495299398916,13.644801938158992,0.06451167000000001,-5.8247068475,-2.132981442959769,False,2.9873000000000003
mp-4068,Na8 Ge4 S12,24,Monoclinic,14,559.8550219505224,2.548573608287156,23.327292581271767,1.00446669,-4.37092875,-1.084004064209769,True,2.4515000000000002
mp-28278,Na8 Ge4 Se12,24,Monoclinic,14,636.8647780044561,3.70766851818596,26.536032416852336,1.07474774,-3.952897278749999,-0.987196637881644,True,1.6256
mp-10340,Na4 Ge2 Te2 O12,20,Trigonal,163,251.8799530552762,4.512172789450674,12.593997652763811,2.03307062,-5.9603304275,-1.946576293942528,False,2.6629
mp-643260,Na2 H4 Pd1,7,Tetragonal,139,90.2060199924003,2.8796335601518903,12.886574284628614,-0.9879361400000001,-6.5928676571428575,-0.32011560642857,True,2.2472
mp-697096,Na2 H4 Pt1,7,Tetragonal,139,89.28112921195864,4.558525658122578,12.754447030279806,-0.85534477,-10.800219515714286,-0.452144137857142,False,2.1188
mp-632760,Na2 H6 Pt1 O6,15,Trigonal,147,139.9973699781888,4.069673154104059,9.33315799854592,0.62017451,-5.2992223706666675,-1.378333068017241,False,2.6137
mp-37458,Na2 H1 F4,7,Monoclinic,10,89.33183756150176,2.28602603764631,12.761691080214536,-3.59432726,-4.246759748571429,-2.284757249144089,False,1.3565
mp-865500,Na2 Hf2 O5,9,Tetragonal,123,124.00540431410766,6.467203620556658,13.778378257123073,2.10313073,-8.42483044888889,-3.165094377528736,False,1.9603000000000002
mp-505121,Na8 Hg12 S16,36,Orthorhombic,61,866.1787055285421,5.950708077252114,24.06051959801506,1.9733362300000001,-2.938841876944445,-0.6981867725287371,True,1.6498
mp-4961,Na2 Hg1 O2,5,Tetragonal,139,76.23003578649424,6.068127925222486,15.246007157298848,0.69060179,-3.914587437999999,-1.336780317051725,False,1.6474000000000002
mp-28858,Na16 Hg8 S16,40,Orthorhombic,61,987.5863754950016,4.179310161057072,24.689659387375038,0.545546,-3.205924705750001,-0.951958159801726,False,2.1799
mp-1190145,Na4 In4 Ge2 S12,22,Monoclinic,9,581.9893308348178,3.085152907095758,26.454060492491717,1.7151137300000001,-4.436717567727272,-1.013538085553812,True,2.190699999999999
mp-1190429,Na4 In4 Ge2 Se12,22,Monoclinic,9,666.7171580626866,4.0946566279993,30.305325366485757,1.14947922,-4.010568731363636,-0.93781548001404,True,1.3672
mp-1190138,Na4 In4 Si2 S12,22,Monoclinic,9,551.6837863518672,2.9864156623723432,25.07653574326669,1.81625948,-10.949097381363636,-1.015524564261364,True,2.2375
mp-504854,Na8 Li12 Co4 O16,40,Orthorhombic,58,437.99123936590354,2.877314286639637,10.949780984147589,1.844456769999999,-5.32915761525,-1.795610525525862,False,1.483699999999999
mp-9719,Na8 Li4 Al4 P8,24,Orthorhombic,64,459.5920234536306,2.050051282768388,19.149667643901275,3.00859819,-3.824294132916666,-0.6294795821462771,False,1.992999999999999
mp-9722,Na8 Li4 Ga4 As8,24,Orthorhombic,64,510.19926800491095,3.547436485188726,21.258302833537957,2.36538734,-3.3752254670833333,-0.5484412151819931,False,1.2155
mp-1180690,Na8 Mg8 Ni4 H24,44,Orthorhombic,62,518.2062595804119,2.042234305830922,11.777414990463908,2.06375066,-3.234020632499999,-0.316246368887146,False,1.7138
mp-1210449,Na4 Mg2 V2 F14,22,Orthorhombic,74,289.1436114566342,2.919889571882717,13.142891429847008,0.11371755,-5.764470827727273,-3.328581348887148,False,2.5192
mp-553997,Na4 Mn2 P10 O30,46,Monoclinic,11,632.2531202359904,2.604202981350949,13.744633048608488,0.47959484,-7.498978171956522,-2.5797503653871283,True,1.3872
mp-28079,Na8 Mn8 S12,28,Monoclinic,15,609.8978540446008,2.7449836900351423,21.782066215878597,2.90892459,-9.877077225357143,-1.219930405700429,False,0.49150000000000005
mp-540871,Na8 Mn8 Si8 O28,52,Monoclinic,14,697.026725900628,3.087697392855465,13.404360113473615,3.14621324,-7.755530804807692,-2.640620402009283,False,2.498499999999999
mp-1210501,Na4 Mn6 P6 O24,40,Monoclinic,15,470.70134464402065,3.497513273469234,11.767533616100517,2.92225744,-7.830435231999999,-2.540863228524014,False,0.061900000000000004
mp-19080,Na4 Mn6 O14,24,Triclinic,2,271.6524857617183,3.946251620931512,11.31885357340493,1.38343155,-7.337589572500001,-1.937155033462644,False,1.405699999999999
mp-555618,Na8 Mn4 F20,32,Monoclinic,14,404.98538556957504,3.213108968204523,12.65579329904922,-0.65391237,-5.6074305446875,-2.930590704148707,True,1.693
mp-1029605,Na8 Mn4 N8,20,Orthorhombic,62,301.61932569766236,2.839273439807993,15.080966284883118,2.0197328,-6.062416693499999,-0.358014225637931,True,0.7166
mp-755874,Na4 Mn2 O6,12,Monoclinic,12,122.538625916866,4.035959672054634,10.211552159738833,2.07753734,-6.351020723333334,-1.902797412614942,False,1.9179
mp-1195277,Na4 Mo4 Se4 O22,34,Monoclinic,15,488.3321592417072,3.888547103585765,14.362710565932565,0.7653768200000001,-6.833966084705882,-1.787252214849771,True,2.7771999999999992
mp-1203771,Na4 Nb4 P12 O42,62,Hexagonal,176,944.2406238120593,2.65063626826917,15.229687480839667,2.08943743,-7.907849249516128,-2.769588801310186,True,2.6478
mp-1192640,Na2 Nb4 Se4 O19,29,Triclinic,2,440.84806891357647,3.907693467479749,15.201657548744016,0.45134204,-7.454691267931034,-2.244913105073573,False,2.3695
mp-9753,Na4 Nb2 F12,18,Tetragonal,136,255.32760060632793,3.289194249834733,14.184866700351552,1.62518597,-8.753803429444444,-3.129514152777778,True,0.29609999999999903
mp-2352,Na2 O1,3,Cubic,225,41.253952671138684,2.494753644716401,13.751317557046228,0.65267651,-3.969539539999999,-1.425738685919539,False,1.8736000000000002
mp-2340,Na6 O6,12,Hexagonal,189,144.24885606779526,2.6929727082185853,12.020738005649605,1.833154899999999,-4.442937286666667,-1.2980963948563211,False,1.7361
mp-1190635,Na6 Os3 O12,21,Hexagonal,189,246.36209307534324,6.070402415747758,11.731528241683012,3.0193161,-6.559784118571426,-1.745119403251228,False,0.25930000000000003
mp-8989,Na4 P4 Pd2 O14,24,Monoclinic,15,327.2120112416208,3.312256602871459,13.6338338017342,1.24426605,-6.782368312916667,-2.338201858503694,False,1.6031
mp-1101885,Na4 P2 S6,12,Monoclinic,12,270.3317881667296,2.127160252555636,22.527649013894134,1.72179248,-4.5047022175,-1.085703253316912,False,2.6345
mp-567228,Na8 P4 Se12,24,Orthorhombic,64,629.326594238528,3.312318028514011,26.22194142660533,1.19530414,-10.695153900416665,-0.850967542943948,False,1.7908
mp-27622,Na16 Pb8 O16,40,Orthorhombic,60,685.0192130732371,5.530353170708311,17.125480326830928,2.19559994,-4.833618121499998,-1.575215994051721,False,2.4667
mp-1210368,Na8 Pb4 O12,24,Monoclinic,15,310.6280759004224,6.440079821109834,12.942836495850933,3.60968675,-5.218838009583329,-1.6788427358764322,True,1.2504
mp-560120,Na4 Pd2 N8 O24,38,Monoclinic,14,527.877624115242,2.519188509676402,13.891516424085317,-0.01316172,-6.385445636842105,-1.091131615408349,False,1.7034
mp-1195013,Na4 Pd2 S16 O52,74,Monoclinic,14,1117.5994397978611,2.451299038623064,15.102695132403529,1.6217515100000002,-6.294047585675676,-1.709799314398881,False,1.545599999999999
mp-559068,Na2 Pd1 Se2 O8,13,Triclinic,2,205.7535503095738,3.537429831710557,15.827196177659523,0.04233665,-5.587414159230769,-1.399811515957393,True,1.7401
mp-27562,Na2 Pd3 O4,9,Orthorhombic,71,109.52441305840149,6.507818827884617,12.169379228711277,3.29030401,-5.365046265555554,-1.141165042528733,False,0.4208
mp-29359,Na8 Pd4 Cl16,28,Tetragonal,130,676.6982908305749,2.8878438751410442,24.167796101091962,0.30256718,-9.231769187500001,-1.417687710357142,False,1.1864
mp-3622,Na4 Pd2 F8,14,Monoclinic,14,185.3299005796603,4.092763760094411,13.237850041404306,0.17882764,-8.416227555,-2.331523762142857,False,1.2356
mp-1210356,Na6 Pd3 F18,27,Trigonal,150,371.88531477780384,3.568446353478911,13.773530176955697,-2.42312151,-7.664026172222223,-2.2368059,False,2.0894
mp-685478,Na32 Pd16 O48,96,Monoclinic,5,1053.2821762055285,5.054953458887578,10.971689335474254,2.6690514,-5.141967877708333,-1.357433480668103,False,0.8889999999999991
mp-10223,Na4 Pd2 S4,10,Orthorhombic,36,198.51464712815616,3.6224607408402543,19.851464712815616,2.20171611,-10.223586949,-0.991824366124998,False,0.9447999999999991
mp-1078751,Na4 Pd2 Se4,10,Orthorhombic,36,223.88759817153826,4.603182321098053,22.388759817153826,1.78296199,-12.699911419,-0.9575243766249991,False,0.6253000000000001
mp-1192379,Na6 Pt3 F18,27,Trigonal,150,378.49574506478257,4.6730853012140035,14.018360928325281,-1.5072886300000001,-10.870195247037039,-2.273279053703704,False,2.7424
mp-22313,Na2 Pt1 O2,5,Orthorhombic,71,67.43566226953892,6.723900463580867,13.487132453907785,3.08070686,-5.092301365999999,-1.362201988551723,False,1.463299999999999
mp-560860,Na8 Pt4 O12,24,Orthorhombic,70,266.3709519996665,7.207967774786441,11.09878966665277,3.12593872,-5.430639367499999,-1.497563052126436,False,1.5488