material_id,composition,nsites,crystal_system,space_group,volume,density,density_atomic,efermi,energy_per_atom,formation_energy_per_atom,is_gap_direct,band_gap
mp-1211377,K2 Sb2 Cl12,16,Monoclinic,15,448.97013873544404,2.763382180619438,28.060633670965252,1.3711723200000001,-9.753345533125,-1.173443901718748,True,2.0845
mp-10417,K2 Sb2 O4,8,Monoclinic,15,149.56743644713066,4.282305780301104,18.695929555891333,2.61949956,-5.67052968125,-1.8814564380624992,False,2.011
mp-547792,K2 Sb2 O6,10,Trigonal,148,153.64624010469555,4.514453166273659,15.364624010469555,1.49502496,-6.069977969000001,-2.04912717345,False,2.6808
mp-11703,K2 Sb2 S4,8,Monoclinic,15,238.9857669027302,3.126561606741884,29.873220862841276,2.10617461,-12.8010312,-0.8523867423437501,False,1.601
mp-9576,K4 Sb4 Se8,16,Monoclinic,13,532.3938582658552,3.977084352239109,33.27461614161595,1.5795281700000001,-3.994612053124999,-0.931563573609373,False,1.1298
mp-1223347,K2 Sb2 W2 O12,18,Orthorhombic,46,281.6619638406832,5.196234207949289,15.647886880037955,3.90570922,-7.471966192777777,-2.149047612472221,False,2.8241
mp-9268,K6 Se6,12,Hexagonal,189,418.7520947407349,2.80892329970684,34.89600789506124,0.400119699999999,-3.48159502,-1.167954419796875,False,0.7039000000000001
mp-726032,K2 Se6,8,Monoclinic,5,293.278708700202,3.125168892858938,36.65983858752525,0.86957045,-3.70046917125,-0.795693132320312,False,0.7469999999999991
mp-1217,K32 Si32,64,Cubic,218,2011.6367627018603,1.774655569810547,31.431824417216568,1.999820559999999,-7.5333215390625,-0.13730727343750002,False,1.3548
mp-866651,K4 Si4 Bi4 S16,28,Monoclinic,14,727.5168453239022,3.692352626031423,25.98274447585365,2.245589009999999,-15.9726665825,-0.910623924642858,False,2.0549
mp-28695,K4 Si4 H12,20,Orthorhombic,62,319.757399910416,1.458386837216834,15.9878699955208,0.34475498,-5.219501882,-0.188028735,False,2.5733
mp-14721,K8 Si8 Sb8 O40,64,Orthorhombic,33,936.266278855909,3.815894816148872,14.629160607123579,1.6442621800000001,-6.965628773125,-2.53744202090625,False,2.8079
mp-11604,K2 Sm4 Cu2 S8,16,Orthorhombic,63,386.512471471751,4.567940152318723,24.157029466984437,3.1088074900000002,-5.79226353125,-1.8896151646562491,False,1.013
mp-567322,K4 Sm8 Sb12 Se32,56,Orthorhombic,62,1583.1201015164045,5.6086018702103715,28.270001812792938,3.77800459,-4.884626085,-1.247280546857142,True,0.6252999999999991
mp-11634,K2 Sm2 Ge2 Se8,14,Monoclinic,4,428.26454941906707,4.481758420285739,30.59032495850479,1.4801002300000001,-4.896058261428571,-1.4022540295178572,False,1.6626
mp-554581,K4 Sm4 P8 S28,44,Monoclinic,14,1090.5396297971702,2.8983283758828042,24.784991586299324,2.02358822,-5.369553266136363,-1.219606004230518,True,2.6804
mp-15783,K1 Sm1 S2,4,Trigonal,166,108.43211238297596,3.883473905731944,27.10802809574399,1.54744585,-5.63568089,-2.104012141812499,False,2.2759
mp-1006891,K1 Sm1 Se2,4,Trigonal,166,121.13091030313562,4.76208126064221,30.282727575783905,1.23933783,-5.1922377275,-1.981793024234375,False,1.8906
mp-9036,K1 Sm1 Te2,4,Trigonal,166,147.95289964826867,4.990591466563279,36.98822491206717,2.5808057,-23.324605565,-1.6781963459375,False,1.2623
mp-542374,K16 Sn16,32,Tetragonal,142,1228.855549246432,3.411914083401286,38.401735913951,2.61104551,-2.851468627499999,-0.280997838624998,False,0.7321000000000001
mp-3481,K2 Sn2 As2,6,Hexagonal,186,190.64609280796589,4.054183174949009,31.774348801327648,3.28889822,-3.656096675,-0.385741971583333,False,0.335199999999999
mp-15107,K8 Sn8 As8 O40,64,Orthorhombic,33,1041.6832262259525,3.988124002020327,16.276300409780507,1.40676448,-6.34495834765625,-2.026099705750001,True,2.2533
mp-554119,K4 Sn4 As4 S20,32,Orthorhombic,55,867.7988521539961,3.008453007968412,27.11871412981238,2.71998241,-4.613766994687499,-0.800909251218747,False,1.8064
mp-1223442,K8 Sn8 Au8 Se24,48,Tetragonal,103,1486.3556362407762,5.287918987697528,30.965742421682837,1.7741183,-3.9720669691666672,-0.821640634046874,True,1.4172999999999991
mp-1097015,K4 Sn4 I12,20,Orthorhombic,62,836.2062838205491,4.277587265101873,41.81031419102745,3.87968881,-3.066696506500002,-1.124100621950002,False,1.9381
mp-1193412,K4 Sn4 P4 S16,28,Monoclinic,14,762.3232821782804,2.7624014221478213,27.225831506367154,2.42848983,-4.7869415010714285,-0.914105304913263,True,2.1224
mp-541379,K8 Sn8 S32,48,Monoclinic,14,1323.4851387479437,2.871373913969228,27.572607057248828,2.32322198,-4.515116633750001,-0.899386659124999,False,1.4139
mp-3486,K2 Sn2 Sb2,6,Hexagonal,186,220.7928894279649,4.205154297637906,36.798814904660816,3.64084833,-3.481261339999998,-0.39128040074999704,False,0.2609
mp-866639,K4 Sr8 Cd8 Sb12,32,Orthorhombic,62,1054.4170111475676,5.067462041203641,32.950531598361486,3.37300427,-3.100098318125,-0.747192067781249,True,0.18429999999999902
mp-571288,K2 Ta2 Ag4 Se8,16,Orthorhombic,40,513.9686033788576,4.85671167158311,32.1230377111786,0.74308721,-4.985492101875,-0.9020147852864571,False,1.7478
mp-1200554,K4 Ta12 Te8 O48,72,Orthorhombic,57,1068.085353831089,6.399932119415574,14.83451880320957,4.84003982,-8.369914569305557,-2.6813425583379633,False,2.9431000000000003
mp-1211251,K2 Ta2 Cl12,16,Monoclinic,15,437.5846782302021,3.284492640014538,27.34904238938763,-1.19591475,-4.9921411593750005,-1.980946901197917,False,2.8634
mp-570755,K16 Ta16 N32,64,Orthorhombic,61,1174.3722115238288,5.612021393454505,18.349565805059825,2.21586046,-19.3524530165625,-1.135553518708334,True,2.7614
mp-3614,K1 Ta1 O3,5,Cubic,221,63.7546200303669,6.981426041917768,12.75092400607338,1.68905649,-8.640023914000002,-3.071587857916669,False,2.0995
mp-683955,K16 Ta16 P16 S96,144,Monoclinic,14,3923.8440630493587,3.002360009740592,27.248917104509434,2.33210758,-5.879262552847222,-1.074381642205686,False,1.7675
mp-31308,K8 Ta8 S40,56,Monoclinic,14,1336.6488197129358,3.780327008162937,23.868728923445282,2.62902507,-5.977581191071429,-1.164710462083332,False,1.3034
mp-568318,K20 Ta20 Te60,100,Monoclinic,14,3570.0780812097096,5.607998538235741,35.70078081209709,3.40054748,-5.3048983437000015,-0.8192553546166661,True,0.492199999999999
mp-1223468,K3 Ta3 W6 O27,39,Triclinic,1,560.023234872055,6.50893140876888,14.359570124924488,0.92591751,-8.977074036153912,-2.558135053814169,False,1.4278
mp-11605,K2 Tb4 Cu2 S8,16,Orthorhombic,63,371.38476829907904,4.907197027306531,23.21154801869244,3.44343996,-5.789708509375,-1.907240770697915,False,0.9798999999999991
mp-558923,K4 Tb4 Cr8 O32,48,Orthorhombic,19,744.8736588137327,3.834476567378497,15.518201225286099,-0.69360887,-7.725562544166666,-2.337311183659722,False,2.7243
mp-12011,K2 Tb2 Ge2 S8,14,Monoclinic,4,370.32696933322006,3.577532074471261,26.45192638094429,1.809176809999999,-5.38495665,-1.535571011273809,True,2.459799999999999
mp-999129,K1 Tb1 S2,4,Trigonal,166,104.21158433232767,4.177235957651041,26.05289608308192,1.68157753,-15.4997236275,-2.17104956484375,False,2.3136
mp-2072,K4 Te4,8,Hexagonal,194,337.06176277484184,3.284965191031958,42.13272034685523,1.41087109,-16.73129673625,-1.013552613124998,True,0.670899999999999
mp-1188829,K4 Te4 P8,16,Monoclinic,11,468.84872989344245,3.239213835586062,29.303045618340153,2.74006372,-12.89454245375,-0.5346322361755941,False,1.2093
mp-568904,K4 Th4 Sb8 Se24,40,Monoclinic,14,1137.9071797850115,5.769553119988807,28.447679494625287,4.12134313,-4.97103262,-1.193162688131249,False,0.6898000000000001
mp-12365,K2 Th2 Cu2 S6,12,Orthorhombic,63,305.8895164931984,4.6780857179809985,25.490793041099867,3.08515447,-5.895206235833334,-1.718620678291665,False,2.0422
mp-541238,K2 Ti4 P6 O24,36,Trigonal,167,486.5232026853041,2.865249871620221,13.514533407925114,0.78649835,-8.173587463888888,-3.032237108769179,False,2.5455
mp-1203502,K4 Ti16 Cl44,64,Orthorhombic,62,1537.5289711368573,2.680785532488186,24.023890174013395,3.18555016,-5.3480276884375,-2.032570901598959,False,0.0057
mp-560977,K2 Ti2 P2 S10,16,Monoclinic,12,419.53952158192175,2.202740490524101,26.22122009887011,1.48978553,-5.6309957475,-1.239229109715773,False,1.2217
mp-571544,K2 Ti2 P2 Se10,16,Monoclinic,12,461.3669326369454,3.690872419297693,28.83543328980909,1.18927846,-5.042976540625,-1.052739958993117,False,0.889899999999999
mp-1211257,K1 Tl1 S2 O8,12,Trigonal,155,186.5361158003571,3.877759038634534,15.544676316696425,0.35930242,-6.111182435833332,-1.830911684631944,False,2.0234
mp-560959,K1 Tl2 Mo1 F6,10,Cubic,225,198.94191106466494,5.490521426644849,19.894191106466494,1.05091873,-5.355332116,-2.535024284391668,True,2.4401
mp-28048,K4 Tl4 Br16,24,Orthorhombic,52,885.7561371239426,4.222586890088284,36.90650571349761,-1.39001839,-2.9841588012500013,-1.3090541380138911,True,1.8089
mp-27385,K2 Tl2 Cl8,12,Tetragonal,88,369.23865902390094,3.465482604677857,30.769888251991745,-1.24755175,-3.360183770000001,-1.544014930097224,True,2.3241
mp-27209,K6 Tl6 F24,36,Trigonal,144,574.364341648875,5.541789765100618,15.954565045802083,-1.7044472700000002,-4.35378527694444,-2.494076720374996,False,2.3226
mp-27716,K2 Tl2 O2,6,Monoclinic,12,140.6154265237279,6.128464681188116,23.435904420621316,2.3170354,-4.008381916666669,-1.191447635194449,False,1.1638
mp-8175,K1 Tl1 O2,4,Trigonal,166,63.02965927008807,7.257630321661667,15.757414817522017,2.57300539,-4.734007612500001,-1.384316650145836,False,0.8820000000000001
mp-1211225,K2 Tl2 Se4,8,Tetragonal,140,236.0551799652942,5.647349389187259,29.506897495661775,1.6136323300000002,-3.495964391250002,-0.872298192567711,False,1.3576000000000001
mp-1211338,K2 Tm2 C4 O12,20,Monoclinic,15,260.9663889534406,4.174793219539306,13.048319447672032,0.47049655,-7.954389471499999,-2.578492649725,True,9.999999999998901e-05
mp-865972,K2 Tm4 Cu6 Se10,22,Orthorhombic,63,486.15934875485186,6.5744313650793895,22.09815221612963,3.75299745,-4.942780673636367,-1.317912484451709,False,1.048999999999999
mp-504555,K4 U8 F36,48,Orthorhombic,62,696.2968601788739,6.545284026212316,14.506184587059872,3.77984414,-7.260365879166668,-3.8487941193541673,True,0.17140000000000002
mp-606691,K4 U8 P12 O56,80,Orthorhombic,60,1273.8394786055499,4.3386411357969035,15.922993482569373,0.60437091,-8.548598187249999,-3.086994967808926,True,2.346199999999999
mp-542558,K4 U4 Cr4 O24,36,Monoclinic,14,590.9351512111647,4.778378033459759,16.41486531142124,0.9834443900000001,-8.513813492499999,-2.7623031333055543,False,1.6413
mp-554888,K8 U8 I24 O88,128,Orthorhombic,61,2248.6605331549354,4.926004418559247,17.567660415272933,1.52593113,-6.150938106484375,-1.687038816937499,False,2.2768
mp-1199439,K8 U8 N24 O88,128,Orthorhombic,61,2008.6087879751858,3.274706343380665,15.692256156056139,1.13215394,-7.441821553125,-1.7002475517031241,True,2.4051
mp-554887,K8 U8 Nb8 O48,72,Orthorhombic,62,1090.2590261736339,5.678364396161121,15.142486474633804,2.51905889,-9.026484232777777,-3.225167476916665,True,2.0161
mp-4126,K1 U1 O3,5,Cubic,221,79.44393397949031,6.7957793352570075,15.888786795898062,4.86787333,-8.78844244,-3.335109890449998,False,0.4454
mp-557505,K8 U8 P24 O88,128,Monoclinic,14,1987.6963307218425,3.649345772969465,15.528877583764395,0.32786373,-8.108140820234375,-2.914592609995535,False,2.323
mp-560631,K4 U4 Si8 O28,44,Tetragonal,127,716.6031806690536,4.127406183364171,16.286435924296672,3.59836809,-8.601186001363637,-3.33671847156818,False,0.5523
mp-541148,K4 U4 V4 O24,36,Monoclinic,14,601.8578971049915,4.680019554942789,16.718274919583095,0.66548795,-8.67623936,-2.987966934138888,False,1.9806
mp-6376,K2 V2 Cu4 S8,16,Orthorhombic,40,362.56963337138154,3.163732008388126,22.660602085711346,2.72025673,-5.438841109375,-1.067950184031248,False,1.076
mp-559744,K4 V4 I8 O32,48,Monoclinic,14,742.3868329676704,4.221601251069533,15.466392353493134,1.04526669,-5.8744404141666635,-1.470524658937495,False,2.7395
mp-545469,K4 V4 S8 O32,48,Trigonal,148,679.6207884709785,2.757690839806894,14.158766426478719,0.77226099,-7.022080932916666,-2.182440685604167,False,2.139199999999999
mp-557947,K8 V16 P8 O64,96,Orthorhombic,33,1388.0559531068002,2.870657350508589,14.458916178195835,-0.19469557,-7.852078461145833,-2.493883175470237,False,2.239
mp-19496,K4 V8 Sb4 O32,48,Orthorhombic,62,727.4285949881997,3.567818078458003,15.154762395587495,1.04377766,-7.489685060833334,-2.2386957989375,False,2.8099
mp-1203567,K4 V8 Se4 O28,44,Orthorhombic,62,679.6201627387367,3.244132840218892,15.445912789516742,0.26990496,-7.3455155438636375,-2.124531873372159,False,2.1253
mp-1223484,K2 V6 Pb8 O24,40,Hexagonal,173,698.8672022668175,5.762930708276202,17.471680056670436,4.42816634,-7.259701230499999,-2.129240816862498,False,2.9891
mp-541520,K2 V6 Se4 O24,36,Hexagonal,173,529.550019678566,3.3981272704731,14.709722768849055,0.42406488000000003,-7.239549306388889,-1.975635809274305,False,2.3366
mp-560167,K2 V6 Cd8 O24,40,Monoclinic,9,590.8484994038473,4.685323840328116,14.771212485096182,0.22475479,-6.6102095835,-2.0302765458625,False,2.3764
mp-1192668,K2 V6 Ge4 O18,30,Hexagonal,194,428.65486119079196,3.728160596273725,14.288495373026398,2.37731489,-7.856056972,-2.378670792816667,False,1.632099999999999
mp-19172,K2 V6 O16,24,Monoclinic,11,318.6346024974923,3.33445478265481,13.276441770728846,-0.15807031,-8.0257476525,-2.361849654770832,False,2.0933
mp-557659,K2 V8 P14 O48,72,Triclinic,2,922.7453566209147,3.036462293039392,12.815907730846037,2.03883844,-8.088443241944445,-2.696043997493055,False,1.923499999999999
mp-1205604,K2 V2 Cl6,10,Hexagonal,194,255.09335182458014,2.556929670653495,25.509335182458013,3.3818892,-9.548923211,-1.83589193925,False,0.33420000000000005
mp-557257,K1 V1 F3,5,Cubic,221,70.41227003340603,3.467540209722954,14.082454006681207,2.32983132,-6.230437906000001,-3.03907132245,False,2.075899999999999
mp-560997,K8 V8 F32,48,Orthorhombic,62,713.4845518955307,3.091363002412347,14.864261497823556,-0.27233251,-6.202982164791673,-3.224534616000007,True,1.979299999999999
mp-546266,Dy1 Bi2 I1 O4,8,Tetragonal,123,151.13454136559216,8.475085632881713,18.89181767069902,4.25411149,-6.540042978750001,-2.325755380833334,False,1.3667999999999991
mp-1191253,Dy4 Cr4 B16,24,Orthorhombic,55,233.7617459004605,7.323482350472083,9.74007274585252,6.20928539,-7.49274068,-0.661242333055554,False,0.38330000000000003
mp-19381,Dy4 Cr4 O12,20,Orthorhombic,62,218.53793938887344,7.978148620394884,10.926896969443671,3.6813878,-9.043801588000003,-3.220740385333334,False,2.4922
mp-18754,Dy2 Cr2 O8,12,Tetragonal,141,157.67213739385855,5.865965620758981,13.139344782821546,1.85869209,-8.456233460833333,-2.779022291111109,False,0.29799999999999904
mp-1105344,Dy2 Cr2 Te2 O12,18,Trigonal,163,219.83433028218846,6.61834491547021,12.21301834901047,3.26769935,-7.7762677700000005,-2.542657223148146,False,2.7169
mp-1225327,Dy2 Cu2 Pb2 S6,12,Orthorhombic,36,262.76939111118264,6.691475443483314,21.89744925926522,4.82993941,-5.4896065975,-1.348721935694442,False,1.5979
mp-601257,Dy4 Cu4 Pb4 Se12,24,Orthorhombic,62,587.2901185410161,7.579016689800995,24.47042160587567,4.37439815,-5.057985802916667,-1.2383251860329851,False,1.208699999999999
mp-555044,Dy4 Cu4 S8,16,Orthorhombic,62,329.29028160459023,5.8531771036999185,20.58064260028689,4.11671613,-16.317736603125,-1.5930872557812492,False,1.6186999999999991
mp-675349,Dy1 Cu1 Se2,4,Trigonal,156,91.85216894378837,6.941485983159829,22.963042235947093,3.59177827,-19.2823356475,-1.4194057257812491,False,1.066799999999999
mp-1191571,Dy6 H18,24,Trigonal,165,227.02781447973263,7.264099428329837,9.459492269988859,2.58280809,-11.310122007916666,-0.723336900729165,False,0.004799999999999
mp-1207186,Dy1 H1 Se1,3,Hexagonal,187,49.543032745323046,8.126823580577707,16.514344248441017,3.97079308,-18.252086336666668,-1.6692610509375,False,1.487699999999999
mp-865005,Dy2 I6,8,Hexagonal,194,420.1195251213786,4.294145046200338,52.51494064017233,-0.55330679,-3.949390122499998,-1.651786779166664,False,2.1725
mp-18601,Dy4 Mn8 O20,32,Orthorhombic,55,348.25130004119944,6.7207706836337415,10.882853126287483,3.00109596,-8.612591949375,-2.6523155571910912,False,1.0799
mp-1212984,Dy4 Mn4 Fe4 O20,32,Orthorhombic,55,366.4594223572795,6.4032772021429,11.451856948664984,3.09779355,-8.39967307875,-2.525895946824713,True,1.146
mp-1192462,Dy4 Mo4 Br4 O16,28,Triclinic,2,508.8274646548096,5.252105999204226,18.172409451957485,1.4250573100000001,-7.863388028928571,-2.592985715595237,False,1.8414000000000001
mp-555683,Dy2 Mo2 Cl2 O8,14,Monoclinic,12,249.98141379884896,4.754684069009376,17.855815271346355,0.4796233,-7.987490366428572,-2.686860015238095,False,2.7283
mp-1410,Dy1 N1,2,Cubic,225,29.21522839893118,10.032311466624336,14.60761419946559,3.9806888,-22.575982325,-2.020705376875,False,0.043099999999999
mp-30452,Dy1 Ni1 Bi1,3,Cubic,216,66.57708996861048,10.729222329551504,22.19236332287016,6.06016806,-5.431002686666669,-0.668153847222222,False,0.20840000000000003
mp-4510,Dy1 Ni1 Sb1,3,Cubic,216,62.846580011144894,9.0615514578885,20.948860003714966,6.56310384,-5.8065887966666665,-0.964084313888886,False,0.3123
mp-9850,Dy2 P10,12,Monoclinic,11,243.33387569866963,4.331524379926144,20.277822974889137,5.54363751,-13.4690891475,-0.6370583499801581,False,0.0937
mp-1192185,Dy8 P8 S8,24,Orthorhombic,62,476.22486345606933,6.291413222159875,19.842702644002888,5.36754458,-18.131716862083334,-1.792090655679563,False,0.3391
mp-5241,Dy8 P8 S32,48,Tetragonal,142,1092.4138212515873,3.912447612448479,22.758621276074734,3.03366431,-13.398113757083335,-1.210801112787699,False,2.159699999999999
mp-1225510,Dy1 Pa1 O4,6,Tetragonal,123,76.90579637600867,9.87899812002285,12.817632729334777,5.32101013,-9.842012546666666,-4.182926425277777,False,2.400399999999999
mp-17160,Dy4 Pt4 F28,36,Monoclinic,14,500.2810984897964,6.513260957221938,13.896697180272122,-1.1273146,-14.522984155277776,-2.817237958055554,False,2.3154
mp-1212884,Dy4 Rh4 O12,20,Orthorhombic,62,227.48179478810232,9.15095799998858,11.374089739405116,4.4959901,-7.9469165409999984,-2.581603258333331,True,0.8883000000000001
mp-28928,Dy2 S2 Br2,6,Orthorhombic,59,186.7979741349634,4.879779871074399,31.132995689160566,0.02708018,-5.83137987833332,-2.366819334722207,True,2.8776
mp-561307,Dy4 S4 Cl4,12,Monoclinic,14,293.7268046677385,5.201484766816049,24.477233722311542,2.42823392,-6.071664556666659,-2.536571924722212,False,2.7618
mp-28929,Dy2 S2 I2,6,Orthorhombic,59,214.96943499961498,4.9664047696376254,35.828239166602486,0.28141839,-5.534424936666667,-2.107509033055554,True,2.7811
mp-1213234,Dy4 Sb4 O16,24,Triclinic,2,298.90932435244025,7.738739516315592,12.454555181351678,3.57693145,-7.623371441249998,-2.866834643194442,False,2.3553
mp-1225491,Dy1 Sb1 Pd1,3,Cubic,216,70.65192488515665,9.182190061966486,23.55064162838555,5.81562675,-5.763261726666665,-1.120842200555551,False,0.22989999999999902
mp-16327,Dy1 Sb1 Pt1,3,Cubic,216,70.9188515313655,11.223665092606224,23.639617177121835,6.21931891,-6.153699233333332,-1.214195870555552,True,0.049299999999999004
mp-1184176,Dy4 Sc4 S12,20,Orthorhombic,62,425.38287482371675,4.7413681351763355,21.269143741185836,3.916761799999999,-15.772778999,-2.275721433687499,False,1.773699999999999
mp-769393,Dy8 Se8 O24,40,Monoclinic,14,618.5495841025352,6.216564189531994,15.463739602563379,3.14119697,-7.1167769105,-2.525142906302083,False,1.8154
mp-1212803,Dy4 Te4 As4,12,Orthorhombic,62,302.867573617052,8.005249551333444,25.23896446808767,5.69435439,-25.393350440000003,-1.357830932500003,False,0.3109
mp-1105239,Dy2 Tl2 P4 Se12,20,Monoclinic,4,548.7359681038884,5.462690297432552,27.436798405194416,2.80389962,-4.787509674000001,-0.9078833178348211,False,1.5375
mp-1212931,Dy2 Tl2 W4 O16,24,Monoclinic,15,332.95372487398,8.603670597288037,13.873071869749166,5.21343356,-8.546968232916667,-2.506151887499999,False,2.917099999999999
mp-31166,Dy1 Tl1 S2,4,Trigonal,166,104.48691404445152,6.849799608108835,26.12172851111288,3.9211413,-5.54828831999999,-1.73164662499999,False,1.5281999999999991
mp-568062,Dy1 Tl1 Se2,4,Trigonal,166,116.09695238464535,7.506281293615214,29.024238096161337,3.54358911,-30.057667085,-1.611610018281247,False,1.233199999999999
mp-1007908,Dy1 Tl1 Te2,4,Trigonal,166,139.2378498348835,7.418913919989665,34.80946245872087,4.5661354,-4.577374822499991,-1.2582599645833241,False,0.7156