material_id,composition,nsites,crystal_system,space_group,volume,density,density_atomic,efermi,energy_per_atom,formation_energy_per_atom,is_gap_direct,band_gap
mp-643412,Mn4 H8 Se4 O20,36,Monoclinic,15,437.9099335266078,3.274906535971129,12.16416482018355,1.08229312,-6.367722451944444,-1.4579374883638652,False,1.9027
mp-1221677,Mn1 H6 N2 Cl2,11,Monoclinic,5,131.5167280966388,2.018972372817719,11.956066190603526,1.36154969,-5.322223433636363,-0.7852547959482761,False,1.5529000000000002
mp-735521,Mn4 H24 O12 F12,52,Monoclinic,14,490.7046257951267,2.246685735848503,9.436627419137052,-2.07337152,-5.600926979999999,-1.7456612827254632,False,1.5208
mp-28013,Mn1 I2,3,Trigonal,164,107.54303416765337,4.767267673406124,35.84767805588446,2.432867019999999,-4.776394523333333,-0.7063810159770101,False,1.170799999999999
mp-19455,Mn2 Mo2 O8,12,Monoclinic,13,134.7190612798825,5.297088616763617,11.22658843999021,3.30876953,-8.717003820833318,-2.083752250488489,False,1.409699999999999
mp-22100,Mn4 Nb8 O24,36,Orthorhombic,60,427.02070033983415,5.23798391062398,11.86168612055095,2.65455859,-9.433050544444454,-2.8716737219923463,True,1.924
mp-1232659,Mn4 O4,8,Orthorhombic,59,85.90561003874181,5.4848291586156375,10.738201254842727,4.23508976,-9.087557915000001,-2.032569766465519,False,1.310499999999998
mp-644514,Mn6 O12,18,Monoclinic,12,173.18380507009397,5.001461680242682,9.62132250389411,2.60980021,-8.17517369138889,-1.8225279240325691,False,0.540999999999999
mp-734805,Mn4 P8 H4 O28,44,Monoclinic,14,486.30123933383595,3.139948227243748,11.052300893950816,0.87139645,-7.626491573636364,-2.351595590315159,True,1.6962000000000002
mp-569522,Mn6 P24,30,Triclinic,2,433.09111836081127,4.1140442471047685,14.436370612027043,8.46668331,-6.524260506666667,-0.359478627967159,False,0.4786
mp-776341,Mn1 P6 W3 O24,34,Trigonal,146,499.07451902766053,3.913782696494203,14.678662324342957,1.48577974,-8.348307775294117,-2.48712215017024,False,1.1303
mp-23895,Mn4 P4 H8 O20,36,Monoclinic,15,372.87855328366925,2.99127424255955,10.357737591213034,1.03324859,-7.210947936944444,-2.087878301397099,False,2.4307
mp-2767267,Mn2 P2 O8,12,Monoclinic,15,130.87398009071939,3.804124037517398,10.906165007559949,3.30844737,-8.171940343333334,-2.443718203762317,True,0.9867
mp-8613,Mn2 P2 S6,10,Monoclinic,12,216.04569066551986,2.799365878447004,21.604569066551985,3.35115802,-6.104991248,-0.706477744014777,False,0.1562
mp-557668,Mn1 Pt1 F6,8,Trigonal,148,104.59808409535147,5.778852669829131,13.074760511918933,-0.96247226,-5.53735791125,-2.1978250534913792,False,1.8416000000000001
mp-22554,Mn2 S2 O8,12,Orthorhombic,63,143.83980720371432,3.486412766796632,11.986650600309526,1.890521479999999,-7.559578279999999,-2.044208466738505,False,2.8118
mp-687227,Mn2 Sb4 Pb10 O22,38,Orthorhombic,63,600.8554781161805,8.348641974567956,15.811986266215277,5.2510594600000005,-6.496180135789475,-1.737715705417423,True,1.4424000000000001
mp-17901,Mn4 Se8 O20,32,Orthorhombic,60,454.1519890246688,4.283123314005665,14.1922496570209,2.02317214,-6.608361348437507,-1.496655939389823,True,2.0513999999999992
mp-1210646,Mn2 Si2 Ag4 Se8,16,Orthorhombic,31,406.1322916041314,5.025787114694572,25.383268225258213,2.9396660800000003,-4.8297105375000005,-0.54760371382992,True,0.6252
mp-22213,Mn1 Sn1 B2 O6,10,Trigonal,148,104.97284143368032,4.607470885864951,10.49728414336803,3.71530891,-8.120794296000001,-2.498980624126437,False,2.5711
mp-20096,Mn1 Sn1 F6,8,Trigonal,148,114.06150969980315,4.187520471349239,14.257688712475394,-0.28536453,-5.9900690725,-2.908231397866379,True,2.4057999999999993
mp-20569,Mn2 Sn2 O6,10,Trigonal,148,120.55503457779893,6.105962311348783,12.055503457779894,4.7488373,-7.686987345000001,-2.083893312586208,False,0.877599999999999
mp-569859,Mn1 Tl2 Sn1 Te4,8,Tetragonal,121,267.4634299766943,6.784708514106891,33.432928747086784,4.80078653,-4.25150735875,-0.440537989533047,False,0.309899999999999
mp-570300,Mn4 Tl4 Cl12,20,Orthorhombic,62,505.0186013250548,4.8095376856776415,25.250930066252742,2.20571276,-4.855961184,-1.440138022252875,False,1.9323000000000001
mp-1221565,Mn1 Tl1 Cu1 Se2,5,Tetragonal,119,115.94523695880339,6.885717689145439,23.189047391760678,4.5684329,-5.062766907999999,-0.5378635011903741,False,0.0054
mp-998762,Mn1 Tl1 F3,5,Cubic,221,75.96225372325314,6.914697373767144,15.192450744650628,2.19544397,-6.051000195999995,-2.5959912892528703,False,2.6304
mp-1102938,Mn2 Tl2 F8,12,Monoclinic,15,179.17766370804404,6.215100426239491,14.931471975670336,-0.06712782,-5.781287984166667,-2.5831384993773963,False,1.917
mp-2490654,Mn2 V4 O12,18,Monoclinic,12,254.34244461182925,3.30116544079935,14.130135811768291,0.44326615,-8.668876509444445,-2.333588346992338,False,1.8524
mp-558892,Mn2 V2 Bi2 O10,16,Triclinic,2,237.7521241291062,5.515621660942782,14.859507758069137,2.79476395,-8.0052481475,-2.14577806036638,False,1.9709
mp-19407,Mn2 W2 O8,12,Monoclinic,13,137.541915912545,7.310800981675956,11.461826326045417,2.8855650600000002,-9.201901063333324,-2.216569472988496,False,2.356299999999999
mp-1221557,Mn1 Zn1 Cr4 S8,14,Cubic,216,256.8295635828423,3.7813741495795643,18.344968827345877,4.38889377,-6.882845065,-1.015643256280787,False,0.3357
mp-1221561,Mn1 Zn3 Cr8 Se16,28,Trigonal,160,600.3912768669758,5.339285514242404,21.44254560239199,3.34795195,-6.064123776071428,-0.846259150193964,False,0.14100000000000001
mp-1221515,Mn1 Zn4 Se5,10,Monoclinic,8,232.76114492580012,5.075006797480443,23.276114492580014,1.98372752,-4.053949695,-0.885894982964978,True,0.6608
mp-1386276,Mn1 Zn1 F6,8,Trigonal,148,92.31441317316067,4.215230327491404,11.539301646645084,-3.24426404,-5.28599879375,-2.547889649741379,False,2.3517
mp-1221500,Mn1 Zn1 Se2,4,Trigonal,160,96.83275527166225,4.77186978593662,24.208188817915563,2.4994425700000003,-5.13051345,-0.7771179856546341,True,0.2439
mp-1080460,Mo2 Br4 O4,10,Monoclinic,9,232.40125649254793,4.111981233668229,23.240125649254793,-0.43835549,-6.195724719999999,-1.392631681999999,False,1.4684
mp-1198436,Mo4 N8 O32,44,Monoclinic,14,600.485498539166,2.786881575611531,13.647397694071953,0.85862772,-7.253507509318183,-1.152971723863637,False,2.8207
mp-504210,Mo2 P10 O30,42,Monoclinic,11,585.1094226665211,2.7857772471709312,13.931176730155265,-0.43278164,-7.817342558333334,-2.477226710153062,False,0.1494
mp-542135,Mo8 N4 Cl28,40,Triclinic,2,1091.6554929527683,2.7627050995772873,27.291387323819208,0.37551052,-5.53225502875,-1.23531727225,False,0.07929999999999901
mp-504196,Mo4 P4 O22,30,Monoclinic,11,412.8127646591547,3.457908752087234,13.760425488638491,-0.03767864,-8.061174874333334,-2.264520319285714,False,2.0302
mp-556276,Mo8 P8 Pb4 O48,68,Monoclinic,14,976.7601942212749,4.44066318714105,14.364120503254043,0.98009535,-7.872354253235294,-2.248211523781512,False,2.7571
mp-32108,Mo4 P6 O22,32,Monoclinic,5,449.37604060032436,3.405466730101977,14.043001268760136,1.85661087,-8.2309318,-2.458101059308036,False,1.1251
mp-585184,Mo8 P12 O52,72,Monoclinic,4,1175.727509956516,2.783988052807456,16.329548749396057,0.45043761,-8.051628745416668,-2.370450197579366,False,0.8492000000000001
mp-1204412,Mo4 Pb2 Se4 O22,32,Triclinic,2,507.6305729621811,4.795472302455827,15.863455405068159,1.23466724,-7.08199435375,-1.6555355224804682,False,2.476
mp-1221499,Mo4 Ru2 Se8,14,Triclinic,2,304.74342940019244,6.6345619352328224,21.76738781429946,4.8032497,-19.930144071428572,-0.6708962001785731,False,0.631699999999999
mp-28037,Mo12 S6 Br12,30,Orthorhombic,63,723.6296345434791,5.2836712429028765,24.12098781811597,3.53117954,-6.831108958666664,-1.010398387166663,True,0.987499999999999
mp-640341,Mo12 S28 Cl16,56,Monoclinic,14,1407.4656461457093,3.086787999208474,25.13331510974481,1.87524128,-6.058655893035714,-1.137253142857141,False,1.6862
mp-26744,Mo8 P14 O48,70,Triclinic,2,989.3945150481305,3.304856717979113,14.134207357830435,2.77595005,-8.187663277428571,-2.472178156357142,False,0.893999999999999
mp-649327,Mo24 Pb4 Br56,84,Cubic,201,2669.3873931686976,4.731435236510219,31.7784213472464,3.68072185,-5.459029072380953,-1.092181490476191,True,2.2309
mp-583553,Mo24 Pb4 Cl56,84,Cubic,201,2260.486017801904,3.7587167849098693,26.910547830975048,1.6688984900000001,-15.35656675047619,-1.125559354523811,False,2.5746
mp-569225,Mo24 Pb4 I56,84,Cubic,201,3274.8107275360426,5.191327840007774,38.9858419944767,3.4847717400000002,-4.979778655595238,-0.6882203536904761,True,1.929899999999999
mp-560190,Mo32 O92,124,Monoclinic,13,1858.3149575199257,4.058628270383052,14.986410947741335,1.28756243,-8.405164889032259,-1.935219598870967,True,0.9108
mp-706490,Mo36 O104,140,Monoclinic,15,2090.400289538072,4.065379095813415,14.931430639557655,1.99537753,-8.398539050428571,-1.9340294184285711,True,0.49840000000000007
mp-28775,Mo4 As8 O28,40,Monoclinic,14,575.8683518264014,4.12667933443356,14.396708795660036,2.69006521,-7.209615038999999,-1.727452817999999,False,2.5228
mp-29555,Mo12 Br24,36,Orthorhombic,64,1099.4413278969641,4.635221919668818,30.540036886026783,0.73376197,-5.752632879999999,-1.046118486666666,True,2.1004
mp-1221539,Mo4 Br12 O4,20,Monoclinic,14,540.9740629840984,4.31762576049231,27.04870314920492,0.98308476,-5.292150721499999,-1.151260577499999,True,0.9067000000000001
mp-620029,Mo12 Cl24,36,Orthorhombic,64,951.0552798406189,3.495750124880732,26.41820221779497,1.25782173,-13.869509143611111,-1.077223398611112,False,2.454799999999999
mp-1221436,Mo1 Cl6,7,Trigonal,162,187.00819281943546,2.7407284113669883,26.71545611706221,-0.99500846,-9.841069797142856,-0.8429822507142841,False,1.094199999999999
mp-504759,Mo4 F20,24,Monoclinic,12,336.52016301315683,3.768571473327148,14.021673458881535,-1.5520200000000002,-9.581514335416667,-2.631161137083333,False,0.9911000000000001
mp-1199487,Mo4 H32 S16 N8,60,Orthorhombic,62,832.3476480406252,2.077016712003626,13.872460800677088,0.62954437,-5.323961716666667,-0.574830024666666,True,1.7787000000000002
mp-1198690,Mo12 I24,36,Orthorhombic,64,1348.3113780215315,5.168881205089096,37.45309383393143,2.71370048,-5.274343632777778,-0.6431185194444441,False,1.6796
mp-23396,Mo4 N4 Cl12,20,Triclinic,2,522.9331863949631,2.747456650471394,26.146659319748153,-1.18543223,-6.04119940200001,-1.09528815100001,False,1.6768
mp-715584,Mo4 O12,16,Monoclinic,7,216.31208088552106,4.419817946323175,13.519505055345066,0.44124089,-8.3470251534375,-1.9246418721875,False,1.834299999999999
mp-582976,Mo4 P8 N4 Cl48,64,Monoclinic,14,1916.4116665545764,2.070307105562971,29.943932289915256,1.00456399,-4.441753376562501,-1.179416594955357,False,1.691
mp-26616,Mo4 P8 O28,40,Monoclinic,14,537.803734879939,3.333199632954665,13.445093371998476,1.3003951,-8.13745776175,-2.50622534217857,False,1.9637
mp-555025,Mo4 P8 Pb4 O32,48,Monoclinic,15,683.3388656309327,4.792838033654391,14.236226367311097,2.89680639,-7.835412847708334,-2.4210018251488092,False,2.0672
mp-23397,Mo2 P2 Cl18,22,Triclinic,2,587.8372436990189,2.51969432553645,26.719874713591768,1.97487693,-9.083425030454546,-0.861060864134198,False,0.024900000000000002
mp-504818,Mo2 P2 O10,14,Tetragonal,85,162.31432249991926,4.233556205135817,11.59388017856566,2.01940547,-8.236521357500001,-2.379245834591837,False,2.4078
mp-21138,Mo2 Pb4 O10,16,Monoclinic,12,279.10514937118165,7.024432570792693,17.444071835698853,2.30002316,-7.207339894375,-1.830996234999998,False,2.9278
mp-22169,Mo2 Pb2 O8,12,Tetragonal,88,178.95756495491835,6.8133060233731,14.913130412909863,2.57107608,-7.655489158333334,-1.930465625,False,2.8876
mp-1196979,Mo4 Pb4 Se4 O24,36,Triclinic,2,558.0811743879062,5.690195521621408,15.502254844108506,2.07549614,-7.002382448611111,-1.697718594427082,False,2.3078
mp-1434,Mo1 S2,3,Trigonal,160,56.92135256789191,4.669644630696905,18.9737841892973,5.25004401,-15.012827176666667,-0.965501308541666,False,1.2042
mp-27866,Mo4 S8 Cl12,24,Monoclinic,14,570.066464451331,3.104310044976815,23.752769352138788,1.1197289,-5.259965249166666,-1.148632308333333,False,1.4385000000000001
mp-1634,Mo2 Se4,6,Hexagonal,194,129.4527726305449,6.512714079136082,21.575462105090818,3.8297572,-18.98163681,-0.749936842708334,False,1.301
mp-560907,Mo4 Se4 S8 Cl20,36,Monoclinic,15,1104.833854548422,2.502726026666845,30.689829293011726,-0.30109727000000003,-4.574229319722223,-1.034118794982639,False,2.016
mp-505727,N4 Cl4 O4,12,Orthorhombic,62,228.95137369784007,1.899047663420968,19.07928114148667,-1.93406429,-5.447754669166663,-0.40282748583333,False,1.98
mp-556500,N2 Cl2 O2 F8,14,Tetragonal,108,209.00303573016055,2.247697071579463,14.928788266440039,-1.5403148,-4.184614522142857,-0.928872943571428,True,1.3315000000000001
mp-2789,N6 O12,18,Cubic,204,229.00320208951547,2.001559698678917,12.722400116084193,-2.01735835,-6.76375249,-0.685685905,True,2.8265000000000002
mp-1204579,N16 O48,64,Monoclinic,14,883.8079866669898,1.863962495454049,13.809499791671715,-2.82897672,-6.35912427953125,-0.56358408953125,False,0.9199
mp-1104707,Na2 Ge6 P6,14,Orthorhombic,26,317.92221148273836,3.487265053620464,22.708729391624168,3.7299973,-10.523725992857143,-0.21139138627551002,False,1.085499999999999
mp-1186069,Na2 Mo6 Se6,14,Hexagonal,176,299.23668189608355,6.078534573394384,21.37404870686311,4.80971312,-18.563116667857145,-0.7467167274553581,False,0.39740000000000003
mp-976892,Na2 Te6 Mo6,14,Hexagonal,176,351.79514577885243,6.547936392441767,25.128224698489458,6.31005748,-23.077947189285712,-0.501976929285713,False,0.18760000000000002
mp-30252,Na10 Ca1 Sn12,23,Cubic,217,703.5826996060955,3.999211887465595,30.59055215678676,3.37031257,-3.017403964347826,-0.254896576251873,False,0.41639999999999905
mp-562435,Na20 Co8 O18,46,Triclinic,2,631.7377162044643,3.204830813158644,13.733428613140529,2.10902297,-5.223091730869565,-1.462982004295352,False,1.4835999999999991
mp-638558,Na10 Eu1 Sn12,23,Cubic,217,706.9735069676573,4.242828536745528,30.737978563811186,3.49837793,-16.475740642608695,-0.34022352195652,False,0.319999999999999
mp-1221463,Na20 Nb2 Ga2 As12,36,Monoclinic,7,868.893501426613,3.218502610917988,24.135930595183694,2.80696753,-3.490522214444444,-0.45900310090517205,False,0.9536
mp-30253,Na10 Sr1 Sn12,23,Cubic,217,713.3937528713749,4.054873809507115,31.01711969005978,3.19596981,-15.446655197826088,-0.32745206173913105,False,0.6698000000000001
mp-36165,Na20 Zn8 O18,46,Monoclinic,5,591.8883239012027,3.56594146398521,12.867137476113102,0.93173527,-4.363850279782609,-1.6252489201649172,True,1.4874
mp-645945,Na96 Sn8 Ge64,168,Tetragonal,92,4473.8035387067375,2.89722150062184,26.629782968492485,2.07993271,-2.861553817380952,-0.14277076793103402,True,0.3291
mp-31008,Na28 Al8 O26,62,Monoclinic,14,860.6008762092383,2.46118854608636,13.880659293697393,1.2287937,-5.416141773225807,-2.251951860784205,False,2.5926
mp-27559,Na14 Cd2 O9,25,Trigonal,147,365.86870220224085,3.134704078564414,14.634748088089633,0.27351891,-4.064742003999999,-1.455311590972413,True,1.3896
mp-27569,Na14 Mn2 O9,25,Trigonal,147,349.0313642080227,2.739060259185644,13.961254568320907,1.7881536100000002,-4.811260094,-1.545669272806896,True,0.5456000000000001
mp-1029705,Na30 Cr14 N38,82,Triclinic,2,1174.138967624965,2.75765792777125,14.318767897865428,1.94008593,-6.506466771951219,-0.503432110382674,False,0.6348
mp-1029862,Na30 Mo14 N38,82,Triclinic,2,1342.4523708816089,3.172895815455691,16.371370376604986,1.69995413,-6.743361684390243,-0.536711937943649,False,1.3736000000000002
mp-569991,Na30 Sn2 Ge16 P2,50,Orthorhombic,63,1239.4657909607595,2.88214383998147,24.78931581921519,2.19440715,-2.841775899399999,-0.180372703413299,False,0.023500000000000004
mp-1030704,Na30 W14 N38,82,Triclinic,2,1360.5320133932787,4.63268840668937,16.591853821869254,1.55389739,-7.18437252804878,-0.61705544404121,False,1.6379000000000001
mp-706847,Na17 W19 O57,93,Triclinic,1,1190.9862328783713,6.686503275100458,12.806303579337326,4.19883221,-8.098864878924731,-2.17362289084353,True,0.9734
mp-28413,Na8 Ga12 Sb12,32,Orthorhombic,62,842.0218254195308,4.894152598950092,26.31318204436034,3.68528783,-3.353283804374999,-0.33394213628232705,False,0.19130000000000003
mp-541895,Na8 Re12 S24,44,Monoclinic,15,888.5571340760382,5.957676211178563,20.19448031990996,3.77550677,-6.889103595681816,-0.9929270879780531,False,1.511299999999999
mp-1196650,Na8 Re12 Se24,44,Monoclinic,15,1044.2302146023253,6.859252977431355,23.732504877325574,4.2671919,-6.400810930681818,-0.8550606538019201,False,1.2810000000000001
mp-1211291,Na40 Zn14 Sn24,78,Monoclinic,15,2110.4694239564897,3.685700125371825,27.057300307134483,2.97861368,-2.316696449358974,-0.168812267245799,True,0.0228
mp-1222199,Na40 Zn16 Sn22,78,Monoclinic,5,2065.131407999596,3.680899242269251,26.47604369230251,2.84554017,-2.23910120025641,-0.161725434681697,False,0.023199999999999003
mp-8411,Na4 Ag2 As2,8,Orthorhombic,63,181.0436368876272,4.196562005158032,22.6304546109534,1.69559483,-11.2747919025,-0.476849584375001,True,0.7266
mp-1104717,Na4 Ag2 F8,14,Monoclinic,14,187.31054338620757,4.075163481497007,13.379324527586254,-1.04226673,-8.1263283,-2.270849716428571,False,0.561299999999999
mp-7392,Na4 Ag2 Sb2,8,Orthorhombic,63,209.09380029750716,4.377532153368351,26.136725037188395,2.4007414,-13.9950989475,-0.44746044374999905,False,0.654999999999999
mp-17473,Na16 Al16 As24,56,Monoclinic,14,1268.1146338362944,3.401518031240159,22.644904175648115,2.83170533,-9.882548281785715,-0.6375267442857141,True,1.5317999999999992
mp-7773,Na4 As2 Au2,8,Orthorhombic,63,178.8373509803222,5.902925127447704,22.354668872540277,2.271661609999999,-18.7013142775,-0.596101208124999,True,0.41750000000000004
mp-29411,Na8 B8 S20,36,Orthorhombic,62,770.4621192425773,1.9649553801080661,21.401725534516036,1.46676219,-5.051635373333333,-0.9700772692879941,True,2.5898
mp-5004,Na4 B4 Se14,22,Monoclinic,15,526.8511866829477,3.91028121287,23.947781212861262,1.73539161,-4.396585393181818,-0.713530352954381,False,1.4882
mp-28588,Na16 Be8 O16,40,Monoclinic,14,462.93105263042617,2.496288066967429,11.573276315760655,0.50962657,-5.43495776275,-2.171202476301724,False,2.725
mp-1078709,Na4 Bi2 Au2,8,Orthorhombic,63,215.23435009705406,6.973251441483099,26.904293762131758,2.6676850400000003,-29.49903658875,-0.44513783,False,0.30699999999999905
mp-1190146,Na4 Cd2 Ge4 S12,22,Monoclinic,9,555.9985001919881,2.96305800606685,25.272659099635824,1.38088,-4.370288565909091,-0.941228123887146,True,2.2385
mp-6078,Na4 Cd6 Si6 O20,36,Monoclinic,15,484.72242413027567,4.299066172752058,13.464511781396546,1.27147053,-6.445240197777778,-2.483071516264368,False,2.453299999999999
mp-675693,Na16 Cd8 O16,40,Triclinic,1,608.49396671114,4.156477491492943,15.212349167778502,0.27174718000000003,-4.163848417500001,-1.455973666051723,True,0.7846000000000001
mp-2831941,Na2 Cd1 Sn1 S4,8,Tetragonal,82,222.12645205745184,3.030332516015685,27.76580650718148,0.80309728,-4.0539871175,-1.028179383469826,True,1.9501
mp-1205754,Na2 Ce1 F6,9,Trigonal,150,111.20814332153756,4.480827044812746,12.356460369059729,-0.79267924,-5.842512283333332,-3.608789430306512,False,2.226
mp-1221453,Na8 Ce4 O12,24,Monoclinic,15,338.7048420205128,4.590684866581091,14.112701750854699,4.34429898,-6.737312748749996,-2.8266003417097663,False,2.294599999999999
mp-545646,Na4 Co2 Ge2 O8,16,Monoclinic,7,222.22520869273234,3.609885375166788,13.889075543295771,1.5572232700000002,-6.212351716875,-1.933385447844827,False,1.9531
mp-1210483,Na4 Co2 Ni2 F14,22,Orthorhombic,74,282.09693884740193,3.491760763802576,12.822588129427361,-1.343040789999999,-5.157417175,-2.521602485705329,False,1.4955
mp-704459,Na8 Cr8 O28,44,Triclinic,2,615.2457457210974,2.828185875223387,13.982857857297667,-1.06087999,-7.000059226590909,-1.852307996387146,False,2.5265
mp-973225,Na2 Cr1 H2 F8,13,Monoclinic,12,149.68251015767095,2.795387037468407,11.514039242897764,-2.24888313,-5.211557983076924,-2.562508682712202,False,1.589
mp-18779,Na4 Cr2 O8,14,Orthorhombic,63,187.88174168847823,2.863108335652559,13.420124406319873,-0.529983299999999,-6.572910432857142,-1.983148568965516,True,2.8731
mp-6090,Na4 Cu2 C4 O12,22,Monoclinic,14,267.3564734235984,2.851366763450331,12.152566973799928,1.59299643,-6.813644415,-1.820213029341693,True,0.5033000000000001