material_id,composition,nsites,crystal_system,space_group,volume,density,density_atomic,efermi,energy_per_atom,formation_energy_per_atom,is_gap_direct,band_gap
mp-1539667,Cs2 Pb2 Cl6,10,Tetragonal,127,356.9651386649454,4.153748273575659,35.69651386649454,0.70381024,-3.920044919000005,-1.88679431093104,True,2.7365
mp-540839,Cs4 Pb4 I12,20,Orthorhombic,62,930.846658290349,5.143480376565951,46.542332914517445,1.32446832,-3.101759242000002,-1.263226744931036,False,2.5181
mp-1213382,Cs2 Pr2 Nb12 Br36,52,Trigonal,163,1579.731558013003,4.771231186831909,30.379453038711596,2.16552443,-5.203002232115385,-1.519297736012379,True,0.9777999999999991
mp-1190295,Cs2 Pr4 Ag6 Te10,22,Orthorhombic,63,748.1682773783937,6.109433089545593,34.00764897174517,3.42002676,-4.254820561363636,-1.096251198756529,False,1.1305
mp-1190682,Cs2 Pr6 C2 I12,22,Triclinic,2,905.8505433384269,4.872693186821149,41.17502469720122,3.51581103,-4.595713182727272,-1.535064716559561,False,0.7084
mp-1213658,Cs4 Pr24 Fe4 I40,72,Orthorhombic,62,3113.977479017809,4.912844453432804,43.24968720858068,3.57895927,-4.394864235,-1.428700141647509,True,0.21070000000000003
mp-11118,Cs2 Pr2 Cd2 Se6,12,Orthorhombic,63,419.63879690257176,4.931330045748284,34.96989974188098,1.08571638,-4.4405618958333335,-1.582029620558848,True,1.9664000000000001
mp-12494,Cs2 Pr2 Cd2 Te6,12,Orthorhombic,63,494.85044166888275,5.161133372156913,41.23753680574023,2.36260965,-3.987831659166667,-1.3056021760536392,True,1.5231
mp-7211,Cs2 Pr2 Hg2 Se6,12,Orthorhombic,63,416.7968501090122,5.667573436836008,34.73307084241768,1.40535786,-4.2115200875,-1.461377504308849,True,1.3367
mp-9037,Cs2 Pr2 S4,8,Hexagonal,194,255.40518528888674,4.394333046591848,31.925648161110843,1.901301999999999,-19.72293280125,-2.077330918072913,False,2.228399999999999
mp-12341,Cs2 Pr2 Zn2 Te6,12,Orthorhombic,63,477.94063064296984,5.017133218160017,39.828385886914155,2.49019529,-4.0435365425,-1.311351489386973,True,1.3607
mp-573316,Cs2 Pt4 Se6,12,Trigonal,166,345.9822238642118,7.2947816889734,28.831851988684317,2.329897899999999,-29.289021151666663,-0.7859265695312461,True,1.0495
mp-680370,Cs4 Pu4 P8 S28,44,Monoclinic,14,1199.3194006463807,3.673579553789219,27.257259105599562,3.8499035,-6.124900714318182,-1.084412162062805,False,0.1506
mp-568508,Cs8 Rb8 Mn16 Cl48,80,Hexagonal,194,2176.3068262045463,3.302098377539271,27.203835327556828,2.13980718,-4.969991770124999,-1.839611867426723,True,1.4203000000000001
mp-8202,Cs2 Rb4 Pd2 F10,18,Tetragonal,127,391.99230410892034,4.280657803599771,21.777350228273352,-1.3217727400000001,-4.471713472777778,-2.514136872739464,False,2.3387000000000002
mp-572546,Cs4 Re4 Cl16 O8,32,Monoclinic,14,911.7229690496046,3.591083451451047,28.491342782800142,-0.29790148,-5.56059617875,-1.7298230552693972,False,1.4967000000000001
mp-683890,Cs4 Re12 S16 Br8,40,Monoclinic,14,1133.1244447115512,5.742193152381058,28.32811111778878,1.42427105,-6.95321182625,-1.145246672965517,False,1.8417000000000001
mp-1202357,Cs4 Re12 Se16 Br8,40,Monoclinic,14,1210.946562217819,6.402062107076759,30.273664055445476,1.44273579,-6.584564493499999,-1.033578576153017,False,1.4231
mp-680185,Cs4 Re24 Se32 I12,72,Monoclinic,14,2136.1112539405417,7.035284298105872,29.6682118602853,2.55385297,-6.817204793888888,-0.80964965602251,False,1.2321
mp-27783,Cs8 Re8 Br32,48,Orthorhombic,61,1741.0774026169533,4.873458449278302,36.272445887853195,0.31199689,-4.527087875208335,-1.209774888900864,True,0.4053
mp-29842,Cs2 Re2 F16,20,Tetragonal,129,310.6666135773861,5.036134457728252,15.533330678869305,-2.85396562,-12.6342317475,-2.381502616749999,False,1.7181000000000002
mp-557451,Cs4 Re4 O4 F24,36,Monoclinic,14,656.3739028639418,4.544677128730507,18.232608412887274,-2.57859511,-5.971800945833333,-2.662115719961686,True,2.9741
mp-1199798,Cs24 Re24 S48,96,Orthorhombic,62,2894.3297034109073,5.276986067837814,30.149267743863618,2.90548491,-6.453222060833333,-1.045019332622126,False,1.2522
mp-8015,Cs1 Ru1 F6,8,Trigonal,166,145.03669244592913,3.983894785938133,18.12958655574114,-2.05983038,-11.02073785625,-2.359593356875001,True,1.235199999999999
mp-29266,Cs2 S2,4,Orthorhombic,71,172.99266992412373,3.167069221311618,43.24816748103093,1.2898142400000001,-17.67915287,-1.107426828906248,False,1.726
mp-1191332,Cs2 S4 O12 F4,22,Monoclinic,15,422.5540983961689,2.601730861717828,19.207004472553134,-1.63253409,-5.851857106818182,-1.9700236990595612,False,0.303299999999999
mp-1188913,Cs4 S12,16,Triclinic,2,510.98964781934046,2.9779879273809833,31.93685298870878,1.78633139,-12.957845295,-0.654482733359374,False,1.6567
mp-2761130,Cs4 S4 O16,24,Monoclinic,15,447.3711299915876,3.399507654330719,18.640463749649484,-1.00675268,-6.040014226666666,-1.900317367025861,False,0.6397
mp-573514,Cs8 Sb8,16,Orthorhombic,19,775.8403035427021,4.360504911769052,48.490018971418884,2.75330356,-26.0024922475,-0.595107882500002,False,0.5557999999999991
mp-554822,Cs1 Sb1 P2 O8,12,Trigonal,147,196.3334166894587,3.760385052430832,16.361118057454892,0.84697554,-7.0901563175,-2.469188492411739,False,2.958
mp-1197959,Cs4 Sb8 P4 O32,48,Monoclinic,12,777.7251832134937,4.57253209493312,16.202607983614453,3.33467823,-6.737145080833334,-2.223383279524836,False,1.9806
mp-567583,Cs2 Sb2 Cl12,16,Monoclinic,15,494.06690872757827,3.141714076585718,30.87918179547364,-0.78633221,-3.554580028750001,-1.5385505774568982,True,2.0825
mp-510273,Cs2 Sb2 O4,8,Monoclinic,15,191.62734539415547,4.968155127322778,23.953418174269434,2.51467098,-5.587411512500001,-1.854186307413794,False,2.3758
mp-561639,Cs4 Sb4 S8,16,Monoclinic,14,536.8418348763533,3.94434462996929,33.552614679772084,2.19058931,-17.5753251225,-0.8541333989062531,False,1.736399999999999
mp-28701,Cs4 Sb4 S24,32,Monoclinic,14,974.5769848877252,3.04687286618815,30.455530777741412,1.959737399999999,-12.820949383125,-0.44285398023437406,True,1.8204
mp-2969,Cs4 Sb4 Se8,16,Monoclinic,14,591.159648971551,4.6357308884844795,36.947478060721934,1.8773871,-20.694799769375,-0.8353274714062481,False,1.1399
mp-1225923,Cs2 Sb2 Te2 O12,18,Orthorhombic,74,278.05684011540717,5.712303202573927,15.447602228633732,2.922492489999999,-6.029770522777778,-1.8222093301468711,False,0.9535999999999991
mp-1540169,Cs2 Sb2 W2 O12,18,Orthorhombic,74,286.02995346304704,6.206071745312252,15.89055297016928,4.47882124,-7.471439328333334,-2.173342098295019,False,0.11430000000000001
mp-607477,Cs1 Sc3 Cu2 Te6,12,Monoclinic,12,356.2728025909046,5.408770374622063,29.689400215908716,4.99606272,-5.090855795833334,-1.177219663721264,False,0.006999999999999001
mp-754826,Cs2 Sc2 O4,8,Cubic,227,184.51125913256803,3.777341310414576,23.063907391571004,0.76934316,-7.26076491,-2.976672738663793,False,2.9595000000000002
mp-2014596,Cs2 Se2 Br6,10,Monoclinic,4,388.52193714713826,3.860075474665668,38.85219371471383,1.34186391,-16.725315327,-0.8859848233125001,False,1.833
mp-1370,Cs32 Si32,64,Cubic,218,2529.0599289107195,3.382528180601402,39.51656138922999,2.29083179,-17.09282061984375,-0.15171182234374903,True,1.5634000000000001
mp-558426,Cs4 Si4 Bi4 S16,28,Monoclinic,14,843.3134639081819,3.924199764110301,30.118337996720783,1.91313441,-4.9239264657142865,-1.098673868522168,False,2.4826
mp-1226548,Cs8 Si8 Sb8 O40,64,Orthorhombic,40,1060.810989974659,4.542616176881629,16.575171718354046,4.32598154,-6.91891974875,-2.518657015581897,False,2.191699999999999
mp-570957,Cs4 Si4 Te12,20,Monoclinic,9,808.531875100832,4.467287672887058,40.4265937550416,2.68642016,-22.607318026999998,-0.580539921999999,True,1.261299999999999
mp-1213498,Cs2 Sm2 Nb12 Br36,52,Trigonal,163,1633.9267888916663,4.632188247822636,31.42166901714743,2.0023888,-5.198791430576923,-1.51804406229443,True,0.9853000000000001
mp-1190516,Cs2 Sm4 Ag6 Te10,22,Orthorhombic,63,729.0111695664398,6.356100166344973,33.13687134392908,3.4976234,-4.232806172727272,-1.088215959817136,True,1.1579
mp-16445,Cs2 Sm4 Cu2 Se8,16,Orthorhombic,63,462.14278572454384,5.842511531826939,28.88392410778399,2.92634165,-5.2800217225,-1.726521419878771,False,0.9508000000000001
mp-510062,Cs2 Sm2 Cd2 Se6,12,Orthorhombic,63,406.5716687805346,5.167033420505383,33.880972398377885,1.2171174,-4.434077944166667,-1.588359889447737,True,2.0217
mp-12497,Cs2 Sm2 Cd2 Te6,12,Orthorhombic,63,482.2046332049878,5.3615849860927245,40.18371943374898,2.47561128,-3.968276789999999,-1.298861527442528,True,1.5693000000000001
mp-556979,Cs4 Sm4 Ge4 S16,28,Orthorhombic,19,817.8784838428891,3.932005369797371,29.209945851531753,1.50703109,-5.3899055435714285,-1.560901282093595,False,2.4631
mp-1192812,Cs4 Sm4 Ge4 Se16,28,Orthorhombic,19,936.6114351287194,4.763809297449042,33.45040839745427,1.19296446,-4.890402670357142,-1.428511603075738,True,1.6665
mp-7212,Cs2 Sm2 Hg2 Se6,12,Orthorhombic,63,405.6387967697846,5.900862462338827,33.80323306414872,1.37331062,-4.201202656666667,-1.463874294031072,True,1.3625
mp-574651,Cs2 Sm2 Mn2 Se6,12,Orthorhombic,63,393.0314645296725,4.859400324613423,32.75262204413938,1.979207339999999,-5.7769611,-1.564242194936243,False,0.531199999999999
mp-7977,Cs2 Sm2 O4,8,Hexagonal,194,156.5949418940752,6.686149632297675,19.5743677367594,1.95400077,-6.770798424999999,-2.890176996163792,False,2.9281
mp-9082,Cs1 Sm1 S2,4,Trigonal,166,122.22314935063176,4.719758265958391,30.55578733765794,1.9729687,-5.52860823,-2.052787519913793,False,2.1397
mp-561635,Cs4 Sm4 Si4 S16,28,Orthorhombic,19,780.1786354456132,3.7426872594029232,27.863522694486186,1.92693467,-5.6745759675,-1.730958823879309,False,2.8414
mp-505709,Cs2 Sm2 Zn2 Se6,12,Orthorhombic,63,387.8031364760921,5.014585760378163,32.316928039674345,1.34223992,-4.5384141575,-1.64274053278107,True,2.042399999999999
mp-12343,Cs2 Sm2 Zn2 Te6,12,Orthorhombic,63,464.6821442778108,5.227839797836507,38.723512023150896,2.62254394,-4.033784105833334,-1.314413273275862,True,1.4086
mp-571056,Cs32 Sn32,64,Cubic,218,3164.944576612693,4.2244509756296384,49.452259009573325,3.06918126,-25.33476240109375,-0.40744401109375106,True,1.2659999999999991
mp-1247749,Cs4 Sn4 Br12,20,Orthorhombic,62,783.0209314899195,4.167798818969302,39.15104657449597,2.52701838,-3.537762077500002,-1.572084271431037,True,0.9682000000000001
mp-27394,Cs4 Sn4 Cl12,20,Monoclinic,14,707.7549033566642,3.3595277653632403,35.38774516783321,0.35047602,-15.239973967500001,-1.577583273000002,True,2.9154
mp-614013,Cs1 Sn1 I3,5,Cubic,221,248.41075007279017,4.226897498662958,49.68215001455803,2.56463662,-3.079453774,-1.181536319931034,True,0.449999999999999
mp-1193634,Cs4 Sn4 P4 S16,28,Orthorhombic,62,808.1199126804063,3.376880878482484,28.861425452871654,2.63846132,-4.757233206428571,-0.9163101748997171,False,2.1236
mp-561710,Cs2 Sn2 S6,10,Triclinic,2,322.2707978105111,3.584270415288076,32.22707978105111,1.95954716,-15.630819652,-0.8388928466875001,False,1.6557
mp-1542038,Cs2 Sn2 Se6,10,Triclinic,2,385.7905263288533,4.205213588085478,38.57905263288533,1.182901929999999,-4.047431396,-0.9688896639924571,False,1.189599999999999
mp-7181,Cs1 Sr2 Ta3 O10,16,Tetragonal,123,247.99605608632453,6.7693694257284704,15.499753505395283,1.43231839,-8.93906641625,-3.353239764478449,False,2.0452
mp-1213360,Cs2 Sr2 Ta12 Cl36,52,Trigonal,163,1334.4537610598743,4.8389790824269,25.662572328074507,2.55902759,-6.030335502884616,-1.912037759948276,False,0.1436
mp-505322,Cs4 Ta4 Cu8 Te16,32,Orthorhombic,33,1070.152219022284,5.904752843070441,33.442256844446376,3.39212288,-4.8753153715625,-0.6819976182693961,False,1.2436999999999991
mp-557186,Cs2 Ta4 P10 O36,52,Triclinic,2,802.5239235270188,3.8803074238080013,15.433152375519594,-0.13688595,-8.293626411923078,-2.878914936059083,False,2.9928
mp-1227943,Cs4 Ta16 P12 S76,108,Orthorhombic,29,3107.5698217779322,3.331911277679555,28.773794646091964,1.19407215,-6.345668372407407,-1.040077998348779,False,1.1991
mp-1213077,Cs2 Ta2 Cl12,16,Monoclinic,15,483.2774314565404,3.618593425048759,30.204839466033775,-1.19301826,-5.015484689375,-2.032214450248564,False,2.9077
mp-865606,Cs2 Ta2 Ge2 S10,16,Triclinic,2,445.4664906101767,4.076684651225936,27.841655663136045,1.77576986,-5.930367949375,-1.169151598686062,False,0.9885
mp-606510,Cs2 Ta2 I12,16,Monoclinic,15,693.1154089816937,5.152229128458724,43.319713061355856,1.31037519,-3.76159318625,-1.021720585873563,False,1.1787
mp-34293,Cs2 Ta2 N4,8,Tetragonal,122,170.93349924747253,6.64215108670938,21.366687405934066,2.32832554,-24.1279319025,-1.138485138708329,False,2.1446
mp-553976,Cs8 Ta8 P8 S48,72,Monoclinic,14,2069.557218091545,3.4483510341942543,28.74385025127146,1.67384288,-5.881407944583334,-1.101348384209038,False,1.7818
mp-1225870,Cs2 Ta2 S6,10,Hexagonal,186,288.4055194292077,4.7218324785302705,28.84055194292077,1.9667131,-6.47222654599999,-1.434229782897691,True,0.515099999999999
mp-685607,Cs4 Ta4 Se12,20,Orthorhombic,62,636.3777257598773,5.748247783542349,31.818886287993866,2.11222056,-24.502386344999998,-1.175393063904167,True,0.0868
mp-1194848,Cs4 Ta4 V8 O32,48,Monoclinic,11,870.2200722610227,4.150156859132491,18.129584838771304,-0.92210673,-8.585326799375,-2.708126358290709,False,2.7305
mp-1213369,Cs2 Tb2 Nb12 Br36,52,Trigonal,163,1606.5578035846584,4.728807546758417,30.895342376628044,2.11124014,-5.194053325384615,-1.516410669089302,True,0.9606999999999991
mp-542164,Cs2 Tb4 Ag6 Se10,22,Orthorhombic,63,597.9218406731621,6.493949448241059,27.178265485143733,2.588600259999999,-4.624738395909091,-1.334549737700659,True,1.094399999999999
mp-1190323,Cs2 Tb4 Ag6 Te10,22,Orthorhombic,63,709.1414950190591,6.61442101790833,32.233704319048144,3.81357149,-4.204004398636363,-1.074091006029257,False,1.061999999999999
mp-6182,Cs2 Tb4 Cu6 Se10,22,Orthorhombic,63,526.5063986546859,6.536068219527576,23.93210902975845,3.64422836,-4.958438803181818,-1.325631329064296,False,1.1974
mp-11121,Cs2 Tb2 Cd2 Se6,12,Orthorhombic,63,397.79191997798915,5.352586339927888,33.14932666483243,1.28756918,-4.417005759166667,-1.5847414563921811,True,2.0647
mp-12495,Cs2 Tb2 Cd2 Te6,12,Orthorhombic,63,472.31548815364334,5.534070729762184,39.359624012803614,2.60117428,-3.946204015833333,-1.290242505220305,True,1.5409000000000002
mp-1213063,Cs2 Tb2 Mn2 Se6,12,Orthorhombic,63,384.10931787406895,5.046332730575608,32.00910982283908,2.55273865,-5.766697735,-1.567432581880687,False,0.5118
mp-972199,Cs2 Tb2 S4,8,Hexagonal,194,234.41280833800576,5.043127309672519,29.30160104225072,2.23455581,-20.22375449125,-2.122533162656246,False,2.205399999999999
mp-1194142,Cs4 Tb4 Si4 S16,28,Orthorhombic,19,769.5651928288504,3.868232425084627,27.484471172458942,2.00392851,-5.656763663928571,-1.724678307688833,True,2.8851999999999993
mp-573710,Cs2 Tb2 Zn2 Se6,12,Orthorhombic,63,374.83367194925745,5.263983548570613,31.236139329104788,1.43795101,-4.529650590833333,-1.647430718058847,True,2.1028000000000002
mp-638078,Cs2 Tb2 Zn2 Te6,12,Orthorhombic,63,452.8847838995925,5.426832808612629,37.74039865829938,2.7955736,-4.014943753333333,-1.309026672720305,True,1.3573
mp-1198737,Cs4 Tc12 Se16 Br8,40,Monoclinic,14,1201.4703291084652,4.989637214551083,30.03675822771163,1.6273749400000002,-5.8557565325,-0.9310131939030171,False,1.0219
mp-8361,Cs4 Te4,8,Orthorhombic,55,368.1405515606796,4.700155721594678,46.01756894508495,2.49696058,-26.3272990225,-1.0644603675,False,1.0019
mp-1178386,Cs4 Te16,20,Monoclinic,14,848.7392180552357,5.034450214681592,42.43696090276178,3.658263159999999,-25.833951324999997,-0.47848127700000004,True,0.514899999999999
mp-1541909,Cs2 Te2 Au2,6,Orthorhombic,51,273.4661949036073,5.555715307690348,45.57769915060121,3.00944215,-3.151942528333333,-0.710220707107279,True,1.416
mp-9462,Cs4 Te4 Se12,20,Monoclinic,14,727.4769215782544,4.54132880117545,36.37384607891272,2.47617568,-3.6579640715,-0.7501604921706181,False,0.9842000000000001
mp-645687,Cs4 Ti4 P8 S32,48,Monoclinic,9,1389.5271117478085,2.386444932470962,28.94848149474601,1.23868643,-5.431984787916666,-1.036877023106184,False,1.3678
mp-505663,Cs2 Ti4 Cl14,20,Monoclinic,11,543.8793499577276,2.911536842885058,27.193967497886383,2.1252944,-11.3412391815,-1.936135250583333,False,0.288699999999999
mp-561121,Cs1 Ti3 P5 O19,28,Monoclinic,8,417.00355048535687,2.928273438990003,14.892983945905602,0.29745967,-8.20911411142857,-3.00614695635248,True,2.7906
mp-570706,Cs2 Ti2 Cu6 Se8,18,Monoclinic,11,456.54175469362247,4.999350934217608,25.36343081631236,3.00016367,-4.850279422777778,-0.951975477484833,False,1.251199999999999
mp-1213568,Cs4 Tl12 O20,36,Orthorhombic,62,627.0941293724466,8.749513906369733,17.419281371456847,3.29597276,-4.838310966388885,-1.198066639128351,False,0.35550000000000004
mp-573702,Cs4 Tl4 Br16,24,Orthorhombic,19,946.147884959302,4.6116089076795905,39.422828539970915,0.84677633,-2.978804989166666,-1.340932351331418,False,1.9724
mp-1078203,Cs2 Tl2 F6,10,Cubic,225,218.42703685232235,5.994898166816377,21.842703685232234,0.17906462,-19.952638002,-2.419469716,False,2.1858
mp-1541564,Cs4 Tl4 F16,24,Orthorhombic,57,474.2571071745681,5.788181151019173,19.760712798940336,-1.77584852,-17.511111560416666,-2.379133330416664,False,2.7921
mp-1205877,Cs2 Tl2 O2,6,Monoclinic,12,171.9528395775273,6.823368307708186,28.65880659625455,2.76724631,-3.8994102283333323,-1.156939997662837,False,1.3911
mp-1213394,Cs8 Tl8 S16,32,Monoclinic,15,1079.594909208038,4.939419509376841,33.737340912751186,1.33519138,-3.783347896875,-0.8943056913721281,True,1.2690000000000001
mp-1213326,Cs2 Tm2 Nb12 Br36,52,Trigonal,163,1566.2330964004495,4.871779870770983,30.119867238470185,2.29080179,-5.182120941923078,-1.510453752679045,True,0.9403999999999991
mp-581749,Cs2 Tm4 Cu6 Se10,22,Orthorhombic,63,520.9672118952229,6.733172590713464,23.680327813419225,3.73957468,-4.915040620454546,-1.310480808761267,False,1.247299999999999
mp-12496,Cs2 Tm2 Cd2 Te6,12,Orthorhombic,63,463.6210342632151,5.709550103772549,38.63508618860126,2.77154438,-3.893490884166667,-1.2634230641091961,True,1.548
mp-1213648,Cs2 Tm2 Mn2 Se6,12,Orthorhombic,63,374.4274681767017,5.265595600109138,31.202289014725142,2.6628047,-5.7298775683333325,-1.556506105769576,False,0.5038
mp-1078990,Cs2 Tm2 S4,8,Hexagonal,194,224.91870856091785,5.403791660227766,28.11483857011473,2.30369061,-21.18685517125,-2.111980307656249,False,2.223999999999999
mp-1194326,Cs4 Tm4 Si4 S16,28,Orthorhombic,19,769.1998643845887,3.956497635007328,27.471423728021026,1.95317093,-5.617885335357143,-1.707994571022168,False,2.9693
mp-505713,Cs2 Tm2 Zn2 Se6,12,Orthorhombic,63,367.5362700386693,5.458940116207776,30.62802250322244,1.50341032,-4.495123065833334,-1.638796883614405,True,2.171599999999999
mp-1103187,Cs2 Tm2 Zn2 Te6,12,Orthorhombic,63,436.08143297518114,5.712167548334439,36.340119414598426,4.19063841,-3.969711644999999,-1.289688254942528,True,1.383899999999999
mp-1225971,Cs2 U4 F18,24,Monoclinic,9,411.6839083582128,6.291893335005728,17.1534961815922,3.04308587,-7.191287241666667,-3.798331494554597,False,0.1779
mp-2747986,Cs2 U4 O12,18,Orthorhombic,74,350.05340305759387,6.68819708845892,19.447411280977438,3.5561569200000003,-27.845798523333332,-3.311726471111111,True,0.33490000000000003
mp-556690,Cs2 U12 F50,64,Hexagonal,194,975.923424977672,6.9286630500711315,15.248803515276125,3.90703487,-7.55618477828125,-3.915473934364223,True,0.077999999999999
mp-572944,Cs4 U4 Cr4 O24,36,Monoclinic,14,656.9076701869105,5.246998115567218,18.247435282969736,2.17478309,-8.507948980277778,-2.781259971350574,False,0.6384999999999991
mp-7489,Cs1 U1 F6,8,Trigonal,148,151.43079517596294,5.317521726299572,18.928849396995368,0.62491769,-6.757856422499994,-3.7975436937068903,False,0.9396999999999991
mp-541096,Cs4 U4 Nb4 O24,36,Monoclinic,14,712.8163873651455,5.21666707744993,19.800455204587376,1.22722595,-9.011841602777778,-3.235346197183908,False,2.1589
mp-572741,Cs4 U4 P12 O44,64,Monoclinic,14,1041.9899470684566,4.078712443451091,16.281092922944634,0.50375686,-8.0929409615625,-2.913354760848983,False,2.3621
mp-1225841,Cs2 U2 Sb2 O12,18,Orthorhombic,74,322.3637932467339,6.0648498917077,17.909099624818552,4.00607062,-7.894036658888889,-2.781130564406129,False,1.6823000000000001