material_id,composition,nsites,crystal_system,space_group,volume,density,density_atomic,efermi,energy_per_atom,formation_energy_per_atom,is_gap_direct,band_gap
mp-30010,As4 Kr4 F28,36,Monoclinic,14,547.8998229043624,3.536363482533973,15.219439525121178,-3.75583694,-6.949183169444444,-1.485383560462962,False,2.4978
mp-1182477,As1 N1 O2 F6,10,Monoclinic,12,146.79283027722812,2.657416696194527,14.679283027722812,-2.88429066,-5.328754723,-1.890011069249999,False,2.7441999999999993
mp-1214793,As4 Os4 S4,12,Monoclinic,14,197.0946426435678,10.016300167723147,16.42455355363065,6.7369569,-25.685653831666666,-0.44306752510416403,False,1.1795
mp-1214784,As4 Os4 Se4,12,Monoclinic,14,214.2779096036626,10.666722596410198,17.856492466971883,7.07857249,-27.648357001666668,-0.313583645520831,False,1.0029
mp-14367,As4 P4 O20,28,Orthorhombic,19,314.9095340543126,3.920891505689514,11.246769073368307,1.8522025100000001,-7.039472042857142,-2.064414745306121,False,2.0204
mp-1228745,As4 Rh4 S4,12,Cubic,198,195.75359544951388,7.121892826956591,16.312799620792823,6.0443809,-16.357163500000002,-0.7309106001041691,False,1.2237
mp-1228724,As4 Rh4 Se4,12,Cubic,198,212.84479694964162,8.013444866116352,17.737066412470135,5.4802612,-18.384549557499998,-0.6661096080208321,False,0.9137000000000001
mp-1214786,As4 Ru4 S4,12,Monoclinic,14,194.96319849644567,7.088232343916291,16.246933208037138,6.56684543,-16.648227780833334,-0.592539325937499,False,0.9146000000000001
mp-542810,As16 S16,32,Monoclinic,14,871.8557048070456,3.260272137661132,27.245490775220176,1.17086796,-11.53036466625,-0.15909963140624903,False,1.9674
mp-558466,As4 S4 Br12 F24,44,Monoclinic,14,977.2996534729926,3.131044245096021,22.211355760749832,-1.07910967,-4.037891268863636,-1.746760727499999,False,2.5087
mp-557628,As4 S4 I8 F24,40,Monoclinic,15,819.2963309860281,3.849159839765954,20.4824082746507,0.0208845,-4.124717910250007,-1.790755752250007,False,1.1714
mp-542570,As16 Se16,32,Monoclinic,14,937.1541375116143,4.362593485155438,29.286066797237947,1.44170004,-14.629037953125,-0.11949234390624801,False,1.367999999999999
mp-1214921,As4 Se4 Br12 F24,44,Monoclinic,14,995.023084297199,3.388315735644553,22.614161006754525,0.52503666,-4.030243432272727,-1.7975172627130682,False,2.5724
mp-559575,As4 Se4 I12 F24,44,Monoclinic,14,1151.516849222855,3.741157392324684,26.170837482337614,-0.2595248,-3.905646891136363,-1.7037208815767042,False,1.4197
mp-23575,As4 Se12 Cl12 F24,52,Monoclinic,14,1231.890949873302,2.8692720140641983,23.690210574486574,1.00055977,-4.082745940769231,-1.60685366265625,False,1.9559000000000002
mp-23569,As2 Se12 I2 F12,28,Monoclinic,13,691.0316349667293,3.794681864162699,24.67970124881176,0.14556579,-4.073514975357143,-1.31260652796875,True,1.577
mp-505373,As4 Se4 I4,12,Monoclinic,14,397.04351418791094,4.697280997481949,33.086959515659245,2.29160661,-3.681262548333331,-0.45124700661458106,False,1.2345
mp-1182721,As6 Xe12 F54,72,Monoclinic,15,1577.9180986118402,3.210709880063364,21.915529147386668,-3.31833002,-3.4486426075,-1.618047420208333,False,1.596099999999999
mp-554379,As4 Xe4 F44,52,Monoclinic,14,852.5511457407259,3.234766152062708,16.395214341167808,-4.254799549999999,-3.525059685,-1.5436233136538462,False,2.0307
mp-27750,As4 Xe4 F28,36,Monoclinic,14,600.1485850335284,3.754140547632243,16.670794028709125,-4.58537789,-3.906152134444445,-1.894678431388889,False,2.8699
mp-990238,Au1 O2 F6,9,Triclinic,2,117.92107967993643,4.829429021243865,13.102342186659603,-2.71706518,-3.700632622222223,-0.9614194822222221,False,0.18550000000000003
mp-27253,Au4 O6,10,Orthorhombic,43,132.65363346808087,11.06406560179728,13.265363346808087,2.13002525,-4.736182797999999,-0.45785339499999805,False,0.8689999999999991
mp-947,Au4 S2,6,Cubic,224,146.69522383506134,9.644302410870814,24.449203972510222,1.37662535,-36.51966100166667,-0.11802120760416701,True,1.9091
mp-559824,Au4 Se6 O20,30,Orthorhombic,36,450.2865781859367,5.832579563377046,15.009552606197891,0.00803878,-5.340398208666668,-0.906057643135418,False,0.9414
mp-27441,Au4 Se8 O22,34,Monoclinic,15,514.4590160524397,5.718045147783385,15.131147530954108,0.31684066,-5.397815356764702,-0.9884635352573481,False,1.4326
mp-17407,Au6 F16,22,Monoclinic,14,319.9161442508859,7.711975752505495,14.541642920494814,-1.44582837,-17.158890413636364,-1.089517318181818,False,0.5426
mp-505366,Au4 Br4,8,Tetragonal,138,234.9855081665895,7.826089358503499,29.37318852082369,0.54207735,-2.85840536125,-0.40299109374999903,True,1.6885
mp-27213,Au8 Br24,32,Monoclinic,14,1032.090614009594,5.620605892767032,32.25283168779981,-1.22464175,-2.60317161375,-0.556991212499999,False,0.8891
mp-30159,Au2 Br2 F12,16,Monoclinic,4,252.09615177026478,5.149145958463115,15.756009485641549,-2.29077395,-3.345773034375,-1.29653018625,True,1.9482
mp-32780,Au4 Cl4,8,Tetragonal,141,205.9167224305555,7.497045788439865,25.739590303819437,0.79990707,-28.6329015475,-0.264202023750002,True,1.674399999999999
mp-541656,Au4 Cl8,12,Triclinic,2,319.5461139984167,5.568058520620383,26.62884283320139,-0.44801177000000003,-21.2804825025,-0.31720318750000104,False,0.897899999999999
mp-27647,Au4 Cl12,16,Monoclinic,14,445.8713988311508,4.518647830236056,27.866962426946927,-1.60996121,-17.58379035375,-0.323221143125,False,1.3606
mp-27265,Au6 Cl6 O6,18,Trigonal,148,350.25606761616274,7.066419817647017,19.458670423120154,0.15713903,-3.955443943888888,-0.598648675555555,False,0.9762000000000001
mp-942,Au6 F18,24,Hexagonal,178,365.9296798512416,6.914663849512653,15.247069993801732,-1.08446019,-16.0927427425,-1.101981742499999,False,1.5542
mp-30103,Au8 F40,48,Orthorhombic,62,654.3267442146367,5.927419479742083,13.631807171138265,-3.14238685,-11.900904966874998,-0.8650549835416661,False,0.7042
mp-27725,Au4 I4,8,Tetragonal,138,276.1004553639798,7.791374513900841,34.512556920497474,1.29937864,-2.66481371375,-0.265866406249999,True,2.0942
mp-560021,Au4 S12 O36 F12,64,Monoclinic,14,1077.7338291456067,3.045492854687726,16.839591080400105,-2.02011065,-5.7690925725,-1.6464571429687491,False,1.4998
mp-28192,Au4 S4 Cl20,28,Monoclinic,14,798.0758599252629,3.381489702060268,28.502709283045103,-1.08478462,-3.068769297857142,-0.6894899310714281,False,1.7772000000000001
mp-556587,Au4 S4 Cl28,36,Monoclinic,14,1018.7604095042783,3.111285052358738,28.29890026400773,-0.82209708,-2.980125653611114,-0.7187877461111141,True,1.8191000000000002
mp-30003,Au8 S8 O32,48,Orthorhombic,61,720.3191186426213,5.404120148244996,15.006648305054611,-0.55762267,-5.847149767291666,-1.313135502708332,False,1.600699999999999
mp-2793,Au2 Se2,4,Monoclinic,12,99.90537762212159,9.172416104975438,24.976344405530398,1.75157638,-32.588479265,-0.14021907453124502,False,0.26279999999999903
mp-27199,Au8 Se8 Br8,24,Orthorhombic,62,648.5595920835756,7.288404249999777,27.02331633681565,1.333577,-3.2931083112499993,-0.490861640364582,False,0.6302999999999991
mp-28372,Au4 Se4 Cl28,36,Monoclinic,14,1038.143031264055,3.353235389828396,28.83730642400153,-1.21594956,-12.352763344722222,-0.356808604340276,True,1.7274
mp-560549,Au4 Se4 Cl4 O12,24,Triclinic,2,484.4908108876168,4.926911402086227,20.187117120317367,-0.29123757,-4.82600406625,-0.915634184140625,False,1.3674
mp-644828,Au4 Xe8 F68,80,Orthorhombic,62,1334.147707746949,3.895862590380789,16.67684634683686,-3.15350247,-2.7125819557499993,-0.91849592,False,1.3385
mp-1199051,B40 H52 I4,96,Monoclinic,14,1208.03895616826,1.36422460635338,12.58373912675271,-1.803370409999999,-4.887966745520834,-0.202337827725694,True,2.5463
mp-1199941,B40 H56 S4,100,Orthorhombic,19,1196.0261505585818,0.8568314196008021,11.960261505585818,0.37997286,-4.9633726177,-0.224788320966666,False,2.5518
mp-1196917,B4 Mo2 Pb12 O24,42,Orthorhombic,63,693.0149119258148,7.441138601435116,16.500355045852732,3.25996041,-7.014248184047617,-1.973493511111109,True,2.4454000000000002
mp-662553,B16 Pb16 S40,72,Tetragonal,92,1474.043157062704,5.374374480177234,20.47282162587089,5.44605679,-5.375388840555557,-0.7669582273148151,False,1.7364000000000002
mp-1203040,B8 Pb16 O28,52,Orthorhombic,41,892.8861250114036,7.1594005574711534,17.17088701945007,5.33179666,-6.880659164230769,-2.046420790641024,True,2.454499999999999
mp-553930,B8 Pb24 S4 O48,84,Orthorhombic,62,1441.6100719177298,6.8599495009984555,17.16202466568726,3.86936673,-6.699135933928571,-1.9777760487301572,True,2.9511000000000003
mp-1199451,B100 S150,250,Tetragonal,88,4055.0216882311643,2.4123142396181843,16.220086752924658,4.30791176,-5.8889910275599995,-0.7342185787266671,True,2.526399999999999
mp-1229254,B6 Pb20 Br6 O26,58,Monoclinic,9,1206.2595178762904,7.026553508791071,20.7975778944188,5.07891672,-6.22259956586207,-1.864014094051723,False,2.435399999999999
mp-1195239,B12 Pb24 Br4 O40,80,Orthorhombic,57,1432.797630071289,7.025691219263534,17.909970375891113,2.77803096,-6.707842969374999,-2.036312253499999,True,2.8245
mp-560833,B12 Pb24 Cl4 O40,80,Orthorhombic,57,1346.954034392527,7.254251437601931,16.83692542990659,3.68324069,-6.741066207125004,-2.058955678000004,True,2.9337
mp-624,B12 As2,14,Trigonal,166,129.317419464123,3.589969113026614,9.236958533151642,4.53115495,-8.607139822857143,-0.20918894107142802,True,2.6454
mp-1346,B12 O2,14,Trigonal,166,102.43459585845005,2.621773527017992,7.316756847032146,5.28513093,-7.237317123571429,-0.8052726050000011,True,1.856399999999999
mp-28395,B12 P2,14,Trigonal,166,122.07265749137633,2.6073925513727563,8.71947553509831,5.21319273,-7.909109577857143,-0.326223649710885,False,2.4757
mp-29654,B72 H88,160,Orthorhombic,56,1455.2641917752399,0.9893997412867691,9.09540119859525,-1.810960039999999,-5.3042644603125,-0.09809325075000001,True,2.9653
mp-622018,B1 As5 Pb6 O20,32,Tetragonal,81,553.9456652490212,5.841255292602802,17.310802039031913,1.90185,-6.5470149971875,-1.819980404895833,False,2.9414000000000002
mp-557856,B2 Cl2 O4 F8,16,Monoclinic,9,233.27003735638905,2.196156888650325,14.579377334774316,-3.02461556,-5.207725988125,-1.947817728020833,False,1.9592
mp-23189,B2 I6,8,Hexagonal,176,343.3017052728368,3.787581409278581,42.9127131591046,-0.6082331,-3.160202255000001,-0.347344851041667,False,2.6901
mp-4674,B4 N4 F32,40,Tetragonal,113,475.19314829637045,2.471344439023755,11.879828707409262,-2.83626763,-4.785542488,-1.7526936364166672,True,2.9979
mp-1479,B1 P1,2,Cubic,216,23.272944325085422,2.9813687825821953,11.636472162542711,7.5307309,-8.65751955,-0.48330429523809504,False,1.243499999999999
mp-567433,B4 P4 I12 Br12,32,Orthorhombic,62,1303.61892876206,3.374071476394194,40.738091523814376,0.57944943,-3.357736324375,-0.66051848110119,True,1.9673
mp-1201622,B4 P4 Br24,32,Orthorhombic,62,1017.1433025089385,3.403601081658267,31.78572820340433,1.21143676,-3.611538976562499,-0.87197091328869,True,2.7247
mp-27724,B1 P1 S4,6,Orthorhombic,23,141.5693693903541,1.994541415192164,23.59489489839235,0.37956446,-5.41944845,-0.6447311889682521,False,2.276
mp-1201413,B4 Pb28 Br12 O28,72,Monoclinic,15,1626.734620148762,7.402369027342132,22.593536390955027,3.13832462,-5.692399177916666,-1.680483183425925,False,1.9254000000000002
mp-540668,B16 S32,48,Monoclinic,14,1081.3151571176138,1.841349691563198,22.527399106616954,0.31678882,-5.713698593541667,-0.728328291597221,False,2.5677
mp-1228703,B2 Sb2 Pb2 S8,14,Monoclinic,4,352.52513281924956,4.409238874201632,25.1803666299464,5.18758438,-5.138257249285714,-0.6990460563095221,False,2.1522
mp-1214789,B8 Se16,24,Monoclinic,14,621.8055623394856,3.604784958080036,25.90856509747857,0.31636213,-12.184781938333332,-0.194957051874998,False,1.771199999999999
mp-27286,Ba4 Ag24 O16,44,Orthorhombic,52,778.1146417626792,7.243269557496879,17.684423676424526,1.17088897,-4.354688140227273,-0.830284046590908,False,0.9577999999999991
mp-18501,Ba4 Ag8 Te8,20,Orthorhombic,62,609.8394280098713,6.624990724388473,30.491971400493565,3.75838072,-3.731018303499996,-0.952725886833328,True,0.673299999999999
mp-28505,Ba2 Al4 Te8,14,Tetragonal,125,508.7963699644138,4.580157621476996,36.34259785460099,3.09254507,-4.280968996428569,-1.140490400238092,True,1.5444
mp-14501,Ba2 As12 Pt8,22,Monoclinic,15,444.41882641522795,10.21683416150003,20.200855746146726,5.33771477,-5.587025595909102,-0.657548921818193,False,0.19010000000000002
mp-1105233,Ba2 As4 O12,18,Monoclinic,15,257.68852078019756,4.938234007396964,14.316028932233198,1.15069085,-6.738651304444444,-2.188986189444444,True,2.7763
mp-28719,Ba2 Au4 F16,22,Tetragonal,82,357.78594413808605,6.342110180669233,16.262997460822092,-2.19737877,-4.371535524545451,-2.209939348181815,True,2.4882
mp-558168,Ba4 Au8 F48,60,Cubic,221,1145.4778200532364,4.402527155758056,19.091297000887273,-2.83226628,-3.882965274166666,-1.7874341114999992,True,1.515899999999999
mp-9297,Ba2 Au4 O8,14,Tetragonal,88,217.3158006240782,9.09688780849218,15.522557187434158,2.20246243,-5.482577204285714,-1.445636781428571,False,1.1785
mp-30126,Ba2 B4 S8,14,Monoclinic,9,305.1229717227263,3.1260954367769562,21.794497980194734,2.26586765,-5.820213586428571,-1.272899764761903,False,2.7453000000000003
mp-570823,Ba2 B4 Se12,18,Orthorhombic,64,462.8980770193898,4.539392425453564,25.716559834410546,2.28997205,-4.9185176705555556,-0.8903812985995351,False,1.7096
mp-12927,Ba2 Be4 N4,10,Tetragonal,140,135.9728937457125,4.478603722728969,13.59728937457125,3.02258281,-6.322834987999999,-1.107963756,False,1.178999999999999
mp-1228976,Ba9 Bi18 S36,63,Hexagonal,174,1732.527266114362,5.8963114935600895,27.500432795466065,3.72270251,-4.927826205873013,-1.177471658730156,False,1.2751000000000001
mp-8281,Ba1 Cd2 As2,5,Trigonal,164,139.70118798705417,6.085725269374697,27.940237597410835,2.63466604,-3.250679454000001,-0.614831377000001,True,0.15759999999999902
mp-8279,Ba1 Cd2 P2,5,Trigonal,164,129.8405316603431,5.423798232384745,25.96810633206862,2.9328692100000002,-3.499186951999999,-0.5651984778571411,True,0.6835999999999991
mp-7374,Ba2 Cu4 O4,10,Tetragonal,141,166.64280980517356,5.907405636175781,16.664280980517354,3.15895037,-5.619250707999994,-1.616588649999994,True,1.386299999999999
mp-5970,Ba4 Cu8 S8,20,Orthorhombic,62,388.01353530653097,5.62422080829076,19.400676765326548,5.2748822,-4.805018248999994,-1.126196765999993,True,0.9028
mp-1193410,Ba4 Dy8 S16,28,Orthorhombic,62,722.5967329426176,5.428714197100985,25.807026176522054,2.53993901,-6.37845582642857,-2.420003788333329,True,1.7407
mp-1193797,Ba4 Dy8 Se16,28,Orthorhombic,62,815.3375866760265,6.33934568922243,29.119199524143802,2.26079694,-5.8312907785714305,-2.239951934672619,True,1.3765
mp-17927,Ba4 Dy8 Te16,28,Orthorhombic,62,1006.1217018165838,6.421693048545647,35.93291792202085,3.74923599,-5.1686960525,-1.778846113928569,True,1.2938
mp-1192439,Ba4 Er8 S16,28,Orthorhombic,62,707.9648872764485,5.630210280035412,25.28446025987316,2.62481794,-6.368241679285715,-2.424262989285713,True,1.721299999999999
mp-1192805,Ba4 Er8 Se16,28,Orthorhombic,62,800.2671498703946,6.537725382763253,28.580969638228378,2.26250938,-5.8137686575,-2.236903161696428,True,1.3665
mp-17928,Ba4 Er8 Te16,28,Orthorhombic,62,989.6662229073892,6.592348643286566,35.34522224669247,3.87877114,-5.143207912499998,-1.767831322023807,True,1.310799999999999
mp-568396,Ba8 Fe16 Br64,88,Orthorhombic,61,3458.185642674774,3.412129521716593,39.29756412130425,-0.86295071,-4.284835919431818,-1.379873224886363,True,0.9257000000000001
mp-19154,Ba4 Fe8 O16,28,Orthorhombic,36,442.3569297073226,4.70003236580985,15.79846177526152,1.36316648,-7.610649461428571,-2.089097835714285,False,1.7417999999999991
mp-1183302,Ba4 Ga8 As8,20,Monoclinic,14,528.995052075059,5.356669131520892,26.44975260375295,2.85611178,-4.109172771,-0.6460903610000001,False,1.3062
mp-1105728,Ba4 Ga8 P8,20,Monoclinic,14,491.73330493306423,4.575314766103028,24.58666524665321,3.4408538,-4.416588002999999,-0.655365195857142,False,1.427699999999999
mp-849286,Ba12 Ga24 S48,84,Cubic,205,2083.8769584043566,3.873010546326264,24.808059028623294,1.857020659999999,-4.965200289642858,-1.461113824642858,True,2.9088000000000003
mp-29938,Ba8 Ga16 Sb16,40,Orthorhombic,62,1193.6926876094262,5.790212918594685,29.842317190235654,4.13145377,-3.8515572690000033,-0.604923376000002,False,0.027700000000000002
mp-7841,Ba2 Ga4 Se8,14,Orthorhombic,66,414.71996409700495,4.745645848121506,29.622854578357497,1.06519527,-4.500037020000001,-1.36306374919643,False,1.8578000000000001
mp-38117,Ba1 Ga2 Te4,7,Tetragonal,97,252.63025970763434,5.1740892804585155,36.09003710109062,2.75982205,-3.961316497142856,-1.025832131666665,False,0.5291
mp-1194410,Ba4 Gd8 Se16,28,Orthorhombic,62,836.900590635041,6.092676037770971,29.88930680839432,2.10508955,-8.547751055714283,-2.254198865624996,False,1.225499999999999
mp-1182773,Ba4 Gd8 Te16,28,Orthorhombic,62,1029.5664866520613,6.207721580499715,36.770231666145044,3.52965325,-7.901538467857144,-1.809475183095239,False,0.7582000000000001
mp-27810,Ba4 Ge8 As8,20,Tetragonal,105,541.2744345971146,5.306738360872226,27.06372172985573,3.97288774,-4.5983096424999985,-0.49725449949999906,False,0.028599999999999
mp-27809,Ba4 Ge8 P8,20,Tetragonal,105,504.15172150052837,4.539476695411165,25.20758607502642,3.61233258,-4.9021031265,-0.5029075863571421,False,0.5134000000000001
mp-1193583,Ba4 Ho8 S16,28,Orthorhombic,62,715.7224363822448,5.525963798662894,25.561515585080173,2.58038513,-6.37212853892857,-2.41958966178571,True,1.730699999999999
mp-17273,Ba4 Ho8 Te16,28,Orthorhombic,62,997.6828454125783,6.508370770167922,35.63153019330637,3.75190239,-5.154795434642859,-1.77085865702381,False,0.785
mp-1105940,Ba4 In8 P8,20,Monoclinic,11,565.9775007321595,5.033575930184728,28.298875036607974,5.09522322,-4.21085724,-0.557203344523808,False,0.250899999999999
mp-21943,Ba8 In16 S32,56,Orthorhombic,70,1606.1243984397618,4.096007203315982,28.68079282928146,2.27614547,-4.790444660535714,-1.363193132440475,True,2.2042
mp-21766,Ba8 In16 Se32,56,Orthorhombic,70,1850.4140633883483,4.901912836591854,33.04310827479193,1.74154071,-4.3622841225,-1.30214578860119,True,1.572
mp-21183,Ba2 In4 Te8,14,Orthorhombic,66,549.6389222356725,5.30128227150803,39.259923016833746,3.2272176200000002,-3.876337722142856,-1.017688293571426,False,0.9642000000000001
mp-984052,Ba4 Lu8 S16,28,Orthorhombic,62,688.1810468060976,5.940859147785773,24.577894528789198,2.65334565,-6.346109682142854,-2.41528280833333,True,1.7477
mp-1192674,Ba4 Lu8 Se16,28,Orthorhombic,62,779.544104654393,6.842874325971653,27.840860880514036,2.29087516,-5.7811681971428595,-2.217454517529764,True,1.3795
mp-1192634,Ba4 Lu8 Te16,28,Orthorhombic,62,967.9962629170029,6.845708518464667,34.571295104178674,4.6097569400000005,-5.100014021071429,-1.737789246785714,True,0.7892999999999991
mp-8280,Ba1 Mg2 As2,5,Trigonal,164,135.8389929674064,4.104683991764778,27.16779859348128,2.65369558,-3.8326104360000013,-0.9285784290000021,False,1.0689
mp-29209,Ba1 Mg2 Bi2,5,Trigonal,164,173.13858795412915,5.791868242563416,34.62771759082583,3.27667337,-3.184069918,-0.5920732000000011,True,0.39679999999999904
mp-8278,Ba1 Mg2 P2,5,Trigonal,164,126.38018259497746,3.257013304267086,25.27603651899549,2.98038428,-4.12024428,-0.9180718758571421,False,1.1366
mp-9567,Ba1 Mg2 Sb2,5,Trigonal,164,163.63463549492457,4.358063461124373,32.726927098984916,3.47476502,-3.521034273999999,-0.8334507839999981,False,0.8466
mp-1029505,Ba12 Mo24 N48,84,Cubic,205,1406.47712582604,5.4578557696690915,16.743775307452857,4.59276013,-8.815495472142857,-0.6778688807142861,False,0.043300000000000005
mp-1029502,Ba12 Nb24 N48,84,Cubic,205,1426.0401898822959,5.298203151037149,16.976668927170188,4.15922549,-9.029803467499999,-1.104846896071428,False,2.1524
mp-866306,Ba4 Nd8 S16,28,Orthorhombic,62,778.6729740204366,4.726279564678873,27.80974907215845,2.78307715,-6.376378457857141,-2.375134447142854,True,1.6426
mp-1104130,Ba2 P8 Au4,14,Orthorhombic,70,328.27351927137954,6.628075170079297,23.448108519384252,4.63759405,-4.777914247142852,-0.473823812653054,False,0.190999999999999
mp-28967,Ba2 Pd4 S8,14,Monoclinic,11,316.34140399923814,5.022717317257348,22.595814571374152,3.16054397,-5.242961645000002,-1.124079240714286,False,0.7791999999999991