material_id,composition,nsites,crystal_system,space_group,volume,density,density_atomic,efermi,energy_per_atom,formation_energy_per_atom,is_gap_direct,band_gap
mp-735042,Fe4 P12 H8 O40,64,Monoclinic,14,777.723361998584,2.654187799039557,12.151927531227875,0.06182067,-7.3307377687500015,-2.269088724151786,False,2.9572000000000003
mp-570553,Fe4 P16,20,Monoclinic,15,288.1989015879236,4.142491451453412,14.40994507939618,7.92607,-6.396424983499999,-0.37004192121428403,False,0.8049000000000001
mp-850225,Fe1 P6 W3 O24,34,Trigonal,146,488.7134775793289,3.999839048276441,14.373925811156733,0.895019799999999,-8.321463604705883,-2.480630746701681,False,2.0933
mp-540760,Fe4 P4 Cl32,40,Orthorhombic,57,1180.491451379719,2.084334206812788,29.512286284492973,-0.37392125,-4.071397607000007,-1.204013893464293,False,1.4768000000000001
mp-753395,Fe2 P2 O8,12,Triclinic,2,155.57431203596445,3.219509155542256,12.964526002997038,0.42391547,-7.964475752916666,-2.351585960357142,False,1.3564
mp-1101971,Fe4 P4 S4,12,Monoclinic,14,155.60722013775205,5.074600806071013,12.967268344812672,7.86513343,-6.70680205,-0.6988506157142851,False,0.5054000000000001
mp-1191971,Fe1 Re2 H8 O12,23,Triclinic,2,301.6999994877545,3.4582105958724982,13.117391282076282,1.42081927,-6.8759892573913035,-1.662810422826087,False,2.683799999999999
mp-1522,Fe2 S4,6,Orthorhombic,58,80.66959748929806,4.9392380950398245,13.44493291488301,7.70109249,-6.429082515,-0.8468357333333321,False,0.8770000000000001
mp-649334,Fe4 S4 Cl28,36,Monoclinic,14,1071.6518540092552,2.083048250993553,29.768107055812646,0.80942167,-3.771612140555556,-0.9329254319444441,False,1.4278
mp-19254,Fe4 S4 O16,24,Orthorhombic,62,280.85085254301805,3.592632915718981,11.702118855959085,1.32000576,-7.257987350833333,-1.857949884583333,True,2.7173
mp-1213459,Fe4 Sb4 P16 O56,80,Orthorhombic,33,1042.8297211065258,3.34704465365685,13.035371513831572,3.91097714,-7.5810419105,-2.40442337942857,False,2.6756
mp-774425,Fe1 Sb3 P6 O24,34,Trigonal,146,475.9921170350302,3.457024594287743,13.999768148089125,1.1994299,-7.407464066764706,-2.345672001995797,True,1.9333
mp-1224890,Fe4 Sb12 Pb16 O52,84,Trigonal,160,1205.111666521048,8.035532419852489,14.346567458583904,5.22173188,-6.557328607738095,-1.793942594642857,False,1.2530000000000001
mp-1224896,Fe2 Sb12 Pd2,16,Monoclinic,12,394.4589737512626,7.516983467446845,24.653685859453912,6.98410243,-5.136440825624998,-0.33345201812499703,True,0.248899999999999
mp-674490,Fe1 Sb1 O4,6,Orthorhombic,65,66.65611286382992,6.018811158576186,11.109352143971654,4.58858104,-7.232879218333333,-1.8344014733333331,True,1.0037
mp-27904,Fe4 Sb4 S4,12,Monoclinic,14,196.96372428336022,7.070646686049397,16.41364369028002,8.45012213,-6.172063497500002,-0.592936158333333,False,0.547
mp-1103256,Fe4 Sb4 Se4,12,Monoclinic,14,215.39488635636457,7.911723677921757,17.94957386303038,7.8475378,-5.858213263333333,-0.49323528744791606,False,0.621999999999999
mp-1102580,Fe4 Sb4 Te4,12,Monoclinic,14,248.61302720672083,8.154115357764365,20.717752267226736,8.31038938,-5.586637008333334,-0.33919422722222103,False,0.29809999999999903
mp-760,Fe2 Se4,6,Orthorhombic,58,98.51988481308271,7.205959167435247,16.41998080218045,5.97109343,-5.823665015,-0.669716959895831,False,0.37410000000000004
mp-607953,Fe2 Se2 Br14,18,Monoclinic,7,638.9936416957815,3.607657067940014,35.49964676087675,-0.40226838,-3.333857193888889,-0.731128479149305,False,0.086399999999999
mp-28189,Fe2 Se2 Cl14,18,Triclinic,1,510.43579688379344,2.491779038432064,28.357544271321856,-0.86257553,-3.77475762944444,-1.007454041927079,False,1.3187
mp-1190442,Fe4 Se4 O12 F4,24,Monoclinic,14,320.91947785155713,4.176741755402125,13.371644910481548,0.74250342,-6.479261696249999,-1.691983683307289,False,1.4261
mp-871,Fe4 Si4,8,Cubic,198,85.31240907185911,6.534565165631615,10.664051133982388,9.48775017,-7.42364898625,-0.47597936624999904,False,0.18020000000000103
mp-1714,Fe8 Si16,24,Orthorhombic,64,292.7460250559444,5.083093963068341,12.197751043997684,9.10604776,-6.835854183333333,-0.395635093333333,False,0.6966000000000001
mp-541929,Fe4 Si4 P12 O44,64,Trigonal,167,779.2333439495426,3.007639343794214,12.175520999211603,0.79815114,-7.920670894375,-2.635087714933036,False,2.8712
mp-1178212,Fe4 Sn4 O12,20,Triclinic,2,235.9626720863631,6.264690592443936,11.798133604318156,5.17641663,-7.323507478000002,-1.858812262000002,False,0.8620000000000001
mp-19880,Fe2 Te4,6,Orthorhombic,58,126.8395426867011,8.144185370431034,21.13992378111685,8.54005078,-5.380872741666669,-0.461995076111112,False,0.07739999999999901
mp-1201424,Fe4 Te12 Br4 O28,48,Monoclinic,14,881.8147063438762,4.749497898408484,18.37113971549742,2.43928301,-5.991002645000001,-1.476618273333333,False,1.0909
mp-1201019,Fe4 Te12 Cl4 O28,48,Monoclinic,14,814.2940215898005,4.780738287587777,16.964458783120843,4.61230441,-6.040068155208334,-1.5080507614583332,False,2.2711
mp-561036,Fe2 Te12 O26,40,Trigonal,148,571.5815878208988,5.981370721643863,14.28953969552247,4.9376447500000005,-6.09142512525,-1.5087576434999992,False,2.3607
mp-1102288,Fe4 Te4 As4,12,Monoclinic,14,214.61228478759972,7.996333168517754,17.88435706563331,8.00084957,-5.820328764166668,-0.39251221888888904,False,0.6818999999999991
mp-540998,Fe2 Te2 Br14,18,Triclinic,1,634.911325238213,3.885278258827466,35.27285140212294,-0.69095787,-3.40936294611111,-0.8458126296296281,False,1.0553
mp-540997,Fe2 Te2 Cl14,18,Triclinic,1,541.7651380941389,2.645852157600759,30.098063227452162,-0.63716826,-3.8846331194444432,-1.156507930185184,False,1.2641
mp-558502,Fe4 Te4 O12 F4,24,Monoclinic,14,331.45448708391166,5.018704916916735,13.810603628496319,2.62986865,-6.573041989583333,-1.8445315740277772,False,1.4996
mp-19421,Fe2 W2 O8,12,Monoclinic,13,132.54622556038296,7.609071009222092,11.04551879669858,2.9432597400000002,-8.892696,-2.022696756666667,False,2.401
mp-569237,Ga12 Bi48 Cl48,108,Hexagonal,173,3912.0547296038267,5.335332121115246,36.22272897781321,1.77113893,-3.809458912407407,-0.9225250832407421,True,1.422499999999999
mp-556712,Ga8 Bi4 S16,28,Tetragonal,126,696.8594756177176,4.543563902982043,24.887838414918487,2.08458481,-16.920207322142858,-0.701947040178572,False,2.5288999999999993
mp-571085,Ga8 Bi4 Se16,28,Tetragonal,126,777.5222865646157,5.674642782026927,27.768653091593418,1.74563435,-20.443879880714288,-0.639013228035716,False,1.8901000000000001
mp-765466,Ga8 Co4 O16,28,Cubic,227,290.96498913207864,5.989544234396211,10.391606754717094,2.9322124,-6.7341874425000015,-2.022551330357143,False,1.7927
mp-1201552,Ga8 Cu4 Se16 O48,76,Monoclinic,14,1108.9358032677233,4.257603898909076,14.591260569312148,2.27841722,-5.859806714342105,-1.464302678256578,False,0.7535000000000001
mp-29300,Ga4 Cu2 Cl16,22,Monoclinic,14,614.9245509060693,2.628110642978884,27.951115950275877,-1.22883859,-8.622187046363637,-1.081108948181818,True,0.5977
mp-690544,Ga8 Fe4 O16,28,Orthorhombic,74,291.8581581647271,5.90093287138487,10.423505648740255,3.53324469,-6.966845545357144,-2.064265934642857,False,0.5741
mp-1203326,Ga8 Hg12 Cl32,52,Monoclinic,14,1718.6199066472052,3.960821937258483,33.05038282013856,1.00620226,-2.941969439038461,-1.267080934615386,False,2.489
mp-4809,Ga2 Hg1 S4,7,Tetragonal,82,160.37532561024014,4.848774584080167,22.910760801462878,1.547595869999999,-4.100255565714288,-0.826069515357145,True,1.5707
mp-4730,Ga2 Hg1 Se4,7,Tetragonal,82,183.04843408134425,5.949833585363296,26.149776297334892,1.2604777600000001,-19.10043891,-0.600496146250001,True,0.9168000000000001
mp-16337,Ga2 Hg1 Te4,7,Tetragonal,82,229.30007570248443,6.158664349833605,32.75715367178349,2.952211059999999,-25.215008567142856,-0.368972043928571,True,0.661099999999999
mp-636675,Ga8 I12,20,Monoclinic,14,790.5244090935928,4.370491340830161,39.52622045467964,1.34446583,-2.784268818499998,-0.6586228404999981,True,2.2709
mp-580999,Ga4 Ni2 Cl16,22,Monoclinic,15,589.0050069959816,2.71640117505317,26.77295486345371,-0.07957947,-8.806219489545454,-1.161966740454545,True,0.4607
mp-35236,Ga8 Ni4 O16,28,Orthorhombic,74,283.01261117488946,6.152216715633703,10.107593256246052,3.72607549,-6.528667952142856,-2.010357559999998,True,1.2806
mp-886,Ga4 O6,10,Monoclinic,12,105.73376293730534,5.887587999533202,10.573376293730535,2.06965603,-6.449011680999999,-2.268996668999999,False,2.007799999999999
mp-1196984,Ga16 Pb8 S32,56,Orthorhombic,70,1349.925713949747,4.673442147600109,24.105816320531197,2.73338172,-4.712736013928571,-0.9524106732142841,False,2.2715
mp-571171,Ga16 Pb8 Se32,56,Orthorhombic,70,1493.0427995692946,5.8944533104766395,26.661478563737404,2.11775995,-20.200851852499998,-0.712719433392854,False,2.0313
mp-30945,Ga2 Pd1 Br8,11,Monoclinic,12,376.37995379221843,3.904936466358408,34.21635943565622,-2.18994691,-3.313250152727272,-1.101282322272727,False,1.5761999999999992
mp-30946,Ga2 Pd1 I8,11,Monoclinic,12,471.9229702304659,4.437395235106587,42.902088202769626,-0.18774533000000002,-2.842478662727276,-0.71264459227273,False,1.4176
mp-1072429,Ga4 Ru2,6,Orthorhombic,70,84.09379008953094,9.498589936716057,14.01563168158849,6.26227078,-16.546943346666666,-0.44358094833333406,False,0.1293
mp-539,Ga4 S6,10,Monoclinic,9,219.106108358102,3.571704039881657,21.9106108358102,2.33866981,-10.195047055,-0.7969372256875,False,1.7106
mp-1195835,Ga8 Sb4 Te16 Cl28,56,Monoclinic,14,1905.8855858662862,3.554000429570283,34.03367117618368,1.28364424,-3.708224893928571,-1.158352289761904,True,1.230899999999999
mp-1340,Ga4 Se6,10,Monoclinic,9,251.7131984069082,4.965206661647674,25.17131984069082,1.84569574,-13.864913983000001,-0.700867464437499,True,1.043599999999999
mp-14280,Ga8 Sn8 S20,36,Orthorhombic,33,871.3852533744441,4.094752066420875,24.205145927067893,3.53040311,-13.175230798888888,-0.669351368784722,False,1.839799999999999
mp-570186,Ga8 Te8 Br28,44,Monoclinic,14,1604.8023087390275,3.948426761089052,36.47277974406881,-0.85016242,-3.1735496359090902,-1.009783310757574,False,1.0077
mp-542662,Ga8 Te8 Cl28,44,Monoclinic,14,1390.43458946808,3.070760032179469,31.600786124274546,-0.71114827,-11.617945245909091,-1.000938627499999,False,1.458899999999999
mp-38970,Ga4 Te6,10,Monoclinic,9,320.9027447491865,5.404814384204682,32.09027447491865,3.515628,-20.229681385,-0.402236419000001,False,0.6375000000000001
mp-2371,Ga2 Te5,7,Tetragonal,87,228.92146841272137,5.639398803979377,32.703066916103054,3.76635341,-21.72335594,-0.298831161428572,False,0.7230999999999991
mp-28931,Ga4 Te2 O12,18,Tetragonal,136,186.74743491554793,6.456271683783465,10.374857495308218,4.19176709,-6.249511287777777,-1.928704180185184,True,0.7341000000000001
mp-27255,Ga4 Te2 S4,10,Tetragonal,109,260.17349023801563,4.227415217570599,26.017349023801565,2.29491734,-13.560660762000001,-0.6861058871250001,False,2.0196
mp-28423,Ga4 Te2 Se4,10,Tetragonal,109,290.9726209732,4.850440172800529,29.097262097319998,1.67965935,-16.005362421,-0.6201830866250021,True,1.6141
mp-569854,Ga6 Bi10 Cl24,40,Trigonal,161,1302.8571325411242,4.281186196814461,32.5714283135281,0.28129826,-3.765429721749999,-1.229581060875,False,1.8130000000000002
mp-636368,Ga12 Fe4,16,Tetragonal,136,248.47301477035109,7.084328261604737,15.529563423146943,4.01970796,-4.626824463125,-0.23824714374999903,False,0.22150000000000003
mp-570844,Ga12 Os4,16,Tetragonal,136,285.8497993541225,9.280645208210931,17.865612459632658,3.79161854,-22.14267585625,-0.31428668125000303,False,0.676999999999999
mp-672204,Ga12 Ru4,16,Tetragonal,136,281.3699895538707,7.323652110869979,17.58562434711692,3.88447869,-15.338596460625,-0.400380674374999,False,0.37869999999999904
mp-1196451,Ga6 Sb14 S16 Cl28,64,Monoclinic,4,1871.4905822257497,3.21968033891111,29.24204034727734,1.02590366,-4.150799293125001,-1.120368902890625,True,2.0643
mp-1212718,Ga12 Te12 Br4,28,Orthorhombic,62,892.852747808779,4.9982323156054544,31.887598136027822,3.27256243,-3.615228677499997,-0.7364926371428541,False,1.3147
mp-1212726,Ga12 Te12 Cl4,28,Orthorhombic,62,866.5036405361326,4.809483508227039,30.946558590576164,3.30273313,-17.292757820714286,-0.6166950096428551,False,1.3323
mp-28608,Ga12 Te12 I4,28,Orthorhombic,62,947.321122147258,5.040392124569322,33.83289721954493,2.05419886,-3.508836728571428,-0.6462341053571421,False,1.259099999999999
mp-23519,Ga8 Bi4 O18,30,Orthorhombic,55,391.8493637766656,7.1265138383372975,13.061645459222186,2.45326152,-6.368367666666663,-2.073427549666665,False,2.8782
mp-669455,Ga4 Hg11 As4 Br16,35,Monoclinic,12,1247.6592532645643,5.408250915415627,35.64740723613041,-0.65994679,-2.507622407714286,-0.782182087928573,False,1.0916
mp-1203087,Ga4 Hg11 P4 Cl16,35,Monoclinic,12,1127.4239981041683,4.678580504856417,32.212114231547666,-0.51404353,-2.892620189428571,-0.9852671778877571,False,1.718799999999999
mp-531948,Ga36 Sn6 Te60,102,Trigonal,152,3438.096609183415,5.254018212715765,33.70682950179818,3.51150147,-3.726932889117646,-0.573332481862744,True,0.8666
mp-686076,Ga36 Te60 Pb6,102,Trigonal,154,3462.5403245599405,5.471551819733505,33.946473770195496,3.27830543,-3.7270904317647062,-0.5909561883333321,True,1.019
mp-1203106,Ga14 Sb14 Te16 Cl52,96,Triclinic,2,3174.613604990165,3.434422170293039,33.068891718647556,1.30665586,-3.7867140128125,-1.217792329809027,True,1.4002000000000001
mp-18388,Ga14 Te20,34,Trigonal,155,1106.8716369428712,5.2929212540959725,32.555048145378564,3.43125209,-20.073230155294116,-0.41019046411764704,False,0.5754
mp-1203849,Ga16 Sb14 Se16 Cl58,104,Triclinic,2,3225.7879327240707,3.160606870750415,31.017191660808372,0.62939457,-3.881134733461538,-1.290696081899038,False,1.684699999999999
mp-654129,Ga8 Ag8 P16 Se48,80,Orthorhombic,61,2195.8529925693583,4.315263003000939,27.44816240711698,2.57950985,-4.271586346375,-0.5038413846264871,False,1.713499999999999
mp-11020,Ga2 Ag2 O4,8,Hexagonal,194,96.21024924019014,7.234829671833125,12.026281155023767,2.52557321,-5.52409440749999,-1.582355479791656,False,0.583299999999999
mp-5342,Ga2 Ag2 S4,8,Tetragonal,122,171.9105623236812,4.669724656821038,21.48882029046015,2.313834,-12.83669306125,-0.6195302464062491,True,0.9622
mp-5518,Ga2 Ag2 Se4,8,Tetragonal,122,198.74062122913065,5.606598705752501,24.84257765364133,1.755133359999999,-15.89542622125,-0.5399828320312511,True,0.249199999999999
mp-1224848,Ga1 Ag1 Sn1 Se4,7,Tetragonal,82,199.9732613468383,5.083101460811751,28.567608763834045,1.82359341,-4.084467770000001,-0.6752889890773811,True,0.8903000000000001
mp-4899,Ga2 Ag2 Te4,8,Tetragonal,122,245.11256665298265,5.8639726644300865,30.63907083162283,3.07513582,-21.25041342125,-0.34213799249999904,True,0.19260000000000002
mp-2534,Ga1 As1,2,Cubic,216,47.531859385343836,5.05320036242451,23.765929692671918,2.72603823,-13.521430525,-0.446277056249999,True,0.18610000000000002
mp-1224998,Ga4 Bi12 Sb8 O44,68,Monoclinic,7,885.0562649461477,8.376672008198728,13.015533308031584,5.23190214,-6.436715935588235,-1.8847293186764702,False,2.7016
mp-1212662,Ga4 Cl4 O4,12,Orthorhombic,29,244.009756274195,3.29849902205998,20.334146356182917,-0.82306999,-5.254478655833334,-1.9796120466666671,False,2.675
mp-1212660,Ga2 Cu2 Br8,12,Tetragonal,112,355.6865718745633,4.228628768377309,29.64054765621361,0.28357404,-3.311058367499988,-1.031876895416655,False,1.9902000000000002
mp-29362,Ga2 Cu2 Cl8,12,Tetragonal,112,297.32681933848096,3.072597002824603,24.777234944873413,1.15015282,-8.841747101666668,-1.025192511666667,False,1.8173
mp-1224851,Ga1 Cu1 Ge1 Se4,7,Tetragonal,82,163.89084271772913,5.2863514708485955,23.41297753110416,2.87321888,-4.334498697142856,-0.6582163459821421,True,0.7335
mp-29403,Ga1 Cu1 I4,6,Tetragonal,82,227.90122774330152,4.669644442240902,37.98353795721692,1.64638039,-2.871509844999998,-0.6676176529166651,True,1.4404
mp-11019,Ga2 Cu2 O4,8,Hexagonal,194,87.56813597285675,6.267888091990467,10.946016996607094,4.15341595,-5.930823704999989,-1.6750175293749892,False,0.7812999999999991
mp-5238,Ga2 Cu2 S4,8,Tetragonal,122,148.55064780143238,4.413158152577409,18.568830975179047,4.40697034,-10.28826728875,-0.6983747601562481,True,0.7056
mp-4840,Ga2 Cu2 Se4,8,Tetragonal,122,174.38032577841304,5.545702568288753,21.79754072230163,3.21228489,-13.3018239975,-0.5736508945312491,True,0.0398
mp-3839,Ga2 Cu2 Te4,8,Tetragonal,122,218.28971712859374,5.910200069415345,27.286214641074217,4.43099855,-18.6273470875,-0.34634194499999804,True,0.205799999999999
mp-1097025,Ga4 Fe8 B4 O20,36,Orthorhombic,55,367.2565819441348,4.923354705922516,10.20157172067041,3.30238412,-7.835278394444444,-2.125574479074073,False,2.0716
mp-8211,Ga2 Ge2 Te2,6,Trigonal,166,172.40117104671916,5.200476369328776,28.733528507786527,3.56198043,-17.207088891666668,-0.29642961166666704,True,0.16720000000000002
mp-571190,Ga8 Hg16 Sb8 Cl32,64,Orthorhombic,60,2047.3424447291284,4.765688061930044,31.98972569889263,0.33971776,-2.97867877,-1.082352202812501,False,1.1427
mp-1103091,Ga2 Hg2 Cl8,12,Triclinic,2,354.2281739827701,3.8638917685627803,29.519014498564175,-1.62429467,-3.141458919166666,-1.352802375833334,False,2.8274
mp-570738,Ga12 I24,36,Trigonal,161,1479.4413319299028,4.357624036057486,41.09559255360841,0.21643643,-2.753105004444444,-0.727731253611111,True,2.4743999999999993
mp-30954,Ga4 I12,16,Monoclinic,14,713.5099372572107,4.1931707844143045,44.59437107857567,-0.37045574000000003,-2.684162189375001,-0.7841287225000011,False,2.3721
mp-804,Ga2 N2,4,Hexagonal,186,45.72832358928343,6.080976820120369,11.432080897320857,3.440123299999999,-10.9558127175,-0.670049406875,True,1.726499999999999
mp-541950,Ga1 N5 O14,20,Monoclinic,5,250.62839537978851,2.41001395526723,12.531419768989426,-1.22196937,-6.584007209000001,-0.8844602681250001,False,1.2545
mp-2490,Ga1 P1,2,Cubic,216,40.5058667192971,4.128066394428307,20.25293335964855,3.4774535,-10.731342265,-0.508916133988096,False,1.603899999999999
mp-29817,Ga8 P16 I72,96,Orthorhombic,61,4707.589704927481,3.594557135271475,49.03739275966126,0.42195195,-2.815827158645833,-0.517897441294643,True,1.7419
mp-30979,Ga4 P4 S16,24,Monoclinic,14,586.366088796224,2.593544579931285,24.43192036650933,1.19280688,-9.269997902083334,-0.5058564702876981,True,2.3331
mp-561379,Ga4 Re4 Cl24 O8,40,Monoclinic,14,1180.2549884888663,2.817504956391444,29.506374712221657,-1.99642009,-5.18498934525,-1.5386504412500002,False,1.9749
mp-2507,Ga4 S4,8,Hexagonal,194,179.0698300424525,3.775576275936825,22.383728755306564,1.57488932,-10.50262533375,-0.763737817656249,False,2.0036
mp-1224914,Ga1 Sb3 Pb4 O13,21,Trigonal,160,298.8216331321729,8.178703134767211,14.22960157772252,6.61239386,-6.354475721904762,-1.850229003452379,False,1.388999999999999
mp-1224786,Ga1 Sb1 O4,6,Orthorhombic,65,64.74197216120193,6.552712296160798,10.790328693533654,4.61990815,-6.546005466666666,-2.054515252916665,True,0.7966999999999991
mp-568263,Ga8 Se8,16,Hexagonal,186,407.231921416199,4.850188151865577,25.451995088512437,1.43152927,-13.56718679875,-0.69001870828125,False,1.2121
mp-1120728,Ga4 Se4 Cl4,12,Orthorhombic,58,319.9378350324728,3.822805408887302,26.661486252706066,-0.31768545,-11.607932560833333,-0.9723408680208341,True,2.51
mp-542812,Ga6 Te6,12,Monoclinic,12,381.42452478437787,5.154297046168311,31.785377065364823,2.8866592,-18.872993330833335,-0.44299320083333205,True,1.0066
mp-27449,Ga4 Te4 Cl4,12,Orthorhombic,58,361.4047301712778,4.278124877709205,30.11706084760648,0.97439076,-15.15647961,-0.818999890833334,True,2.1702
mp-29541,Ga2 Te2 I14,18,Monoclinic,7,867.7597786007699,4.155000971060877,48.20887658893166,0.35507284,-2.472750710000001,-0.601696241018519,False,1.5853000000000002
mp-1204314,Gd16 B48 O96,160,Orthorhombic,62,1502.0648615781222,5.053116587516156,9.387905384863263,2.36303368,-9.5555821623125,-3.175375804062499,True,2.692999999999999
mp-1212754,Gd2 Cl6 O24,32,Hexagonal,176,437.5074705811312,3.458430489008011,13.67210845566035,-0.46088125,-5.9026406796875,-0.9653105109375,False,2.2925
mp-510661,Gd4 I12 O36,52,Monoclinic,14,780.3990259896648,5.804302054066328,15.007673576724322,3.73072018,-6.334335269038462,-1.474349951346154,False,1.2373
mp-1203247,Gd4 N12 O36,52,Monoclinic,14,688.6212381232319,3.310989629586324,13.24271611775446,-0.81519489,-7.878720598846154,-1.446212558846155,False,2.5904