material_id,composition,nsites,crystal_system,space_group,volume,density,density_atomic,efermi,energy_per_atom,formation_energy_per_atom,is_gap_direct,band_gap
mp-1095255,Ba3 Th1 Se7,11,Orthorhombic,44,356.2874651212666,5.577608409489746,32.38976955647878,2.19259707,-5.360265559090914,-1.938250703309663,False,0.923
mp-1228231,Ba6 Ti2 Fe4 O18,30,Hexagonal,186,407.7128467307327,5.82846405382256,13.590428224357757,2.8083063900000003,-7.620279072333333,-2.612005185555555,False,0.24630000000000002
mp-1190457,Ba6 U2 Ag2 S12,22,Trigonal,167,616.0490372914554,5.12283024525727,28.002228967793428,3.70971314,-5.968600060454546,-1.903015522878786,False,0.6431
mp-1228523,Ba6 U2 Fe4 O18,30,Orthorhombic,71,423.7006679489455,7.09907361506149,14.123355598298184,3.56865649,-8.122712610666666,-2.888044190999998,False,1.0145
mp-1228397,Ba6 U2 In4 O18,30,Orthorhombic,71,481.0478026313549,7.067052578606059,16.034926754378496,3.69613226,-7.443813359666667,-2.970591268888888,True,1.5562
mp-1228744,Ba6 V8 P12 O48,74,Monoclinic,4,1021.181548654153,3.855717706790956,13.799750657488554,2.37714016,-8.15382076608108,-2.928511188455598,False,2.037899999999999
mp-505392,Ba6 V8 O26,40,Monoclinic,15,680.781534033887,4.018473045779598,17.019538350847178,-0.45521245,-8.14393954175,-2.8231374335,False,2.9577
mp-14743,Ba24 W8 N32,64,Orthorhombic,61,1410.5020155335656,6.139197111138082,22.039093992711962,2.24724292,-7.593026726406251,-1.08450597265625,True,2.03
mp-1228052,Ba6 Y4 Mo2 O18,30,Orthorhombic,71,483.2792941208593,5.701856516658364,16.109309804028644,2.57289569,-8.103173848333334,-3.159680050000001,False,1.569
mp-1228087,Ba6 Y4 W2 O18,30,Orthorhombic,71,469.12789627183776,6.496121813850662,15.637596542394592,2.489576,-8.330977561333333,-3.246651754999999,False,2.3881
mp-560544,Ba6 Zn10 In4 O22,42,Cubic,216,624.1079566386512,6.091077638976975,14.85971325330122,2.32697244,-5.611464288333333,-2.182818506825396,True,1.772599999999999
mp-1214487,Ba6 Zn2 Sb4 O18,30,Hexagonal,194,449.2934044927083,6.393184777789698,14.97644681642361,5.05394167,-6.479014764,-2.491926767000001,True,1.968499999999999
mp-755895,Ba3 Zr2 O7,12,Tetragonal,139,194.5906578283986,6.028274898220201,16.21588815236655,2.05491412,-8.310184575000001,-3.519513482083334,False,2.6976
mp-8570,Ba12 Zr8 S28,48,Tetragonal,136,1299.9122459952446,4.184248212763276,27.08150512490093,2.827465499999999,-6.4672450475,-2.148841459791666,False,1.005799999999999
mp-569563,Ba6 Zr12 Be2 Cl36,56,Trigonal,167,1500.7228016512338,3.5551420487837273,26.798621458057745,3.15622674,-5.646074778035714,-2.286920782857142,False,1.0135
mp-757840,Ba12 Pt9 O27,48,Triclinic,1,775.501167767512,8.213101218891854,16.156274328489832,3.33759946,-6.476503855624995,-2.075194557812495,False,1.5148000000000001
mp-556896,Ba8 Ag2 Au2 O12,24,Orthorhombic,63,460.0820199929029,6.8585301762311754,19.170084166370952,2.07613024,-5.820135315833333,-2.196761526805555,False,1.8623
mp-8300,Ba4 As2 O1,7,Tetragonal,139,235.50147082524893,5.04258213607348,33.643067260749845,2.333277299999999,-4.715187595714282,-1.577458191428567,True,0.669299999999999
mp-1228030,Ba4 Bi2 O1,7,Tetragonal,107,269.7160781941889,6.053607445196198,38.530868313455564,2.9505883600000002,-4.433393517142856,-1.518546462142857,True,0.2841
mp-561553,Ba4 Ce1 Mn3 O12,20,Trigonal,166,292.8375586346321,5.932665701603361,14.641877931731605,2.6661035,-7.7999681039999995,-2.776246725689655,False,1.9704000000000002
mp-1106249,Ba4 Co1 Re2 O12,19,Trigonal,166,265.011087653419,7.347722030461766,13.947951981758894,2.51590114,-7.842747662631579,-2.627954138684211,False,1.536
mp-14002,Ba32 Ge8 As32,72,Cubic,218,2470.6372984479585,4.955514683709652,34.31440692288831,2.36494118,-4.412215788055556,-0.9700582608333331,True,0.8220000000000001
mp-14215,Ba32 Ge8 P32,72,Cubic,218,2312.636307774129,4.284293261651865,32.11994871908512,2.80086228,-4.690678046388888,-0.917253411230157,False,1.0088
mp-1193666,Ba8 In4 Te4 S10,26,Tetragonal,127,809.7060206584814,4.899216228451936,31.14253925609544,3.05809004,-4.816419389615385,-1.726215014935897,True,2.0642
mp-1195568,Ba16 In4 Ag4 S24,48,Monoclinic,14,1389.7282745688326,4.6092395718396855,28.95267238685068,2.82942686,-4.97557198375,-1.7998912681944432,True,1.6864
mp-1228129,Ba4 In1 Sb1 O8,14,Orthorhombic,65,241.66744768800976,6.279436677754012,17.261960549143556,2.84622777,-6.547581364999999,-2.679884023333332,False,2.3682
mp-1214461,Ba4 Li1 Bi3 O12,20,Cubic,229,322.2202939829663,7.086906498027414,16.111014699148317,3.08621092,-6.2276484165,-2.196125535666667,False,0.5661
mp-7971,Ba4 Li1 Sb3 O12,20,Cubic,229,290.95633620145327,6.355065074542673,14.547816810072664,3.43861072,-6.624656933,-2.557289012666666,False,1.454399999999999
mp-1192557,Ba8 Li4 Cd6 As12,30,Orthorhombic,63,836.1940811512778,5.36155201498658,27.87313603837593,2.64837264,-3.640156404666667,-0.813855654111111,True,0.34989999999999905
mp-1192527,Ba8 Li4 Cd6 P12,30,Orthorhombic,63,769.064748440144,4.690857103168819,25.635491614671466,3.17347896,-3.888678471,-0.7642373233015861,False,0.48530000000000006
mp-6011,Ba16 Li4 Mo8 N28,56,Monoclinic,13,1044.7410963735722,5.379737215441115,18.65609100667093,2.60729797,-7.387606126607141,-0.9844584793452361,False,1.842999999999999
mp-18274,Ba8 Li2 Nb6 O24,40,Hexagonal,186,582.3421567351171,5.856724405126423,14.558553918377928,2.03933289,-8.16984360675,-3.206630116416666,True,2.579799999999999
mp-6665,Ba16 Li4 W8 N28,56,Monoclinic,13,1074.0507318494342,6.320114522529251,19.179477354454182,2.39008809,-7.759125802678571,-1.054195281130952,False,2.050699999999999
mp-1019517,Ba8 Mg2 Si4 N12,26,Orthorhombic,70,471.75610038452203,5.025194034876678,18.14446539940469,3.80578788,-6.480135082307692,-1.081160289615384,False,1.6168
mp-1228584,Ba4 Mg1 Ta10 O30,45,Orthorhombic,44,626.4522508005355,7.5891592525743565,13.921161128900788,1.814361809999999,-9.561382000666667,-3.418838103962962,False,2.4682
mp-9705,Ba4 Na1 B3 N6,14,Cubic,229,255.16839011692525,4.482260133809282,18.226313579780374,2.22650252,-6.7727344007142865,-1.123772806348522,False,2.0441
mp-559352,Ba4 Na1 Bi3 O12,20,Cubic,229,329.17452926872045,7.018145385418196,16.458726463436022,2.62489008,-6.1856220445,-2.182459268068965,False,0.2816
mp-6273,Ba4 Na1 Sb3 O12,20,Cubic,229,297.74533893108355,6.299665564891319,14.887266946554178,3.34454889,-6.578552783499999,-2.539544967568964,False,1.5158
mp-1228131,Ba4 Nb2 W1 O12,19,Trigonal,160,284.8505308412696,6.476315076928309,14.992133202172083,1.90596596,-8.377728264736842,-3.103403415789473,True,2.7361
mp-1022809,Ba16 Nb4 Fe4 O32,56,Monoclinic,14,958.911314866053,5.721888479021492,17.123416336893804,1.788163669999999,-7.606661243035714,-2.904453096607143,False,2.7302
mp-28164,Ba8 P4 O2,14,Orthorhombic,64,455.71194291821166,4.571226724273718,32.550853065586544,2.3594111,-4.858491815,-1.507804984183673,True,1.0411
mp-28823,Ba32 P24,56,Orthorhombic,55,1940.708121185392,4.3961142120278645,34.65550216402486,2.7206392999999993,-4.421403233392858,-1.003928899668367,False,0.7701
mp-782050,Ba8 Pd2 O12,22,Trigonal,167,390.54972946534286,6.392362556365387,17.752260430242856,2.35820574,-6.289432426363636,-2.421837189999999,True,1.2730000000000001
mp-8727,Ba8 Pt2 O12,22,Trigonal,167,392.1230678675347,7.117652000972757,17.82377581216067,2.92278807,-6.416324025909094,-2.467705925000003,False,1.8103999999999991
mp-1228183,Ba4 Re2 Ni1 O12,19,Trigonal,160,282.09665294688773,6.901285774804029,14.847192260362512,2.18984871,-7.749071405263158,-2.605503146578947,False,1.8907
mp-9774,Ba4 Sb2 O1,7,Tetragonal,139,259.7620242147456,5.170461309333541,37.10886060210652,2.9419720700000003,-4.63434537142857,-1.6512220507142832,True,0.6382000000000001
mp-801028,Ba8 Sb4 O18,30,Hexagonal,194,535.5749667104091,5.80919804870167,17.85249889034697,5.05709114,-6.680323711999999,-2.6492869596666653,True,2.8294
mp-28238,Ba16 Sb16 Se44,76,Orthorhombic,58,2407.53278062389,5.255461820061556,31.678062902945925,3.89653007,-4.603634119868421,-1.306427226488487,True,1.138399999999999
mp-1228084,Ba4 Sc2 Cu2 O9,17,Orthorhombic,69,275.2873616882489,5.490987201006216,16.193374216955817,2.25957844,-7.10755536882353,-2.80926711264706,False,0.5834
mp-30101,Ba16 Si12 Br8,36,Monoclinic,14,1184.8326353365874,4.447635864594003,32.91201764823854,3.53327172,-4.147480162499998,-1.122397171388887,False,0.43219999999999903
mp-14001,Ba32 Si8 As32,72,Cubic,218,2429.8277940255766,4.795156075045837,33.74760825035523,2.71562834,-4.526172929444439,-0.9948720494444391,True,1.0362
mp-14214,Ba32 Si8 P32,72,Cubic,218,2261.1619505860335,4.120065900140862,31.40502709147269,2.9612279,-4.832435976944445,-0.969867989007936,True,1.0893
mp-1196887,Ba8 Si2 Sb4 Se22,36,Orthorhombic,36,1111.1223711683635,5.049734973449363,30.86451031023232,3.00002276,-4.724050100555555,-1.401036404765624,False,0.868599999999999
mp-2755271,Ba8 Sn6 O20,34,Tetragonal,139,517.1909316664813,6.841540910646369,15.211497990190628,3.68017929,-16.610019052058824,-2.496660382647061,True,1.404399999999999
mp-1228585,Ba4 Ta10 Co1 O30,45,Orthorhombic,44,622.7976041002285,7.726020996843608,13.839946757782855,1.90207924,-9.603174637555554,-3.338343036296295,False,2.4312
mp-1228547,Ba4 Ta10 Fe1 O30,45,Orthorhombic,44,626.0253373984401,7.677994819817104,13.91167416440978,2.25247668,-9.647202176,-3.352668252740741,False,2.040699999999999
mp-29298,Ba8 Ti26 O60,94,Orthorhombic,64,1225.1215865279116,4.4770765473904754,13.033208367318208,1.889018699999999,-9.032192111489362,-3.526742619432624,False,2.529499999999999
mp-558894,Ba8 Ti4 Pt2 O20,34,Orthorhombic,64,529.2542507408859,6.2757675690395605,15.566301492378997,2.83198279,-7.655823756470588,-3.007728040980392,False,1.9973
mp-15503,Ba32 Ti8 As32,72,Cubic,218,2498.476423072692,4.7685809744612975,34.701061431565165,2.13678901,-4.907698490138888,-1.101933833842593,True,1.0537
mp-15502,Ba32 Ti8 P32,72,Cubic,218,2338.596812599442,4.096011687036275,32.48051128610336,2.52464853,-5.206705129166668,-1.0696733649338621,True,1.0636
mp-1229229,Ba8 U16 As4 O66,94,Orthorhombic,31,1601.9329225264257,6.491844931475272,17.041839601344954,1.9000859,-9.133241183723404,-3.37515313968085,False,1.5822999999999992
mp-570453,Ba8 W2 N8 Cl4,22,Monoclinic,11,569.2363536844214,5.017942932100078,25.874379712928246,2.03522916,-6.86503386227273,-1.621013265000002,False,2.2089
mp-2745379,Ba10 Ga12 H4,26,Trigonal,165,765.9553433070326,4.799753138597634,29.459820896424333,3.4329447,-16.555426581153846,-0.5504413175,False,0.6019000000000001
mp-643683,Ba10 Ga12 H4,26,Trigonal,158,763.7718672683998,4.813474704445513,29.375841048784608,2.25373664,-3.164901040384615,-0.5069176778846151,False,0.37349999999999905
mp-1194622,Ba20 I8 O48,76,Orthorhombic,62,1297.09182741766,5.798989423800125,17.066997729179736,2.36691638,-6.089505597105263,-2.299061808157895,True,2.4411
mp-1195424,Ba20 In16 Sb24,60,Orthorhombic,59,2306.3385426203913,5.404144626825615,38.438975710339854,4.24512608,-3.8293020505,-0.8022635762777771,True,0.45080000000000003
mp-28908,Ba10 Ru4 O20,34,Hexagonal,194,560.6619545226288,6.212377644999366,16.49005748595967,2.9195652,-7.007841569117649,-2.441765696764707,False,0.22809999999999903
mp-28926,Ba10 Ti4 N12,26,Triclinic,2,532.9542191867505,5.398986526298691,20.498239199490403,2.89201182,-6.942320743846151,-1.1411264974358941,False,1.4748
mp-1214930,Ba20 Al4 Ru8 O44,76,Orthorhombic,62,1245.4213238591665,5.8225867480279465,16.387122682357454,3.42803539,-7.178381959999998,-2.635391082894735,False,0.0786
mp-1214675,Ba10 Cr6 Cl2 O24,42,Hexagonal,176,812.1872445713719,4.37557116634908,19.33779153741362,2.53876942,-7.412287363095238,-2.660949650238096,True,1.0844
mp-1214531,Ba10 Cr6 O24 F2,42,Hexagonal,176,773.7117011539592,4.522532206997882,18.42170717033236,1.53781331,-7.517394818571428,-2.76294712595238,True,1.0051
mp-1200170,Ba10 Cr6 O26,42,Monoclinic,4,775.9772738858148,4.496492720693283,18.475649378233687,2.23270667,-7.512904037619047,-2.613974981666667,False,0.699299999999999
mp-29082,Ba10 Cr2 N10,22,Monoclinic,12,556.5656283249668,4.825375810999304,25.298437651134858,2.88617922,-6.424151290909092,-0.8842139368181821,False,0.12510000000000002
mp-559141,Ba15 Cu12 Cl3 F51,81,Hexagonal,189,1337.6428444374933,4.838616331964485,16.514109190586336,0.93127282,-5.323697671481481,-3.08755935462963,False,0.106199999999999
mp-1214489,Ba5 Er8 Ni4 O21,38,Tetragonal,87,536.348564559016,8.035587852563255,14.11443590944779,2.88152397,-7.70780953131579,-3.150852873289473,True,2.4221
mp-1215133,Ba20 Ga4 Ru8 O44,76,Orthorhombic,62,1264.7595946873669,5.958024903182951,16.641573614307458,3.34873435,-6.9843047261842095,-2.479075944210526,False,0.06420000000000001
mp-1228258,Ba10 Li4 Te6 O30,50,Tetragonal,87,702.2293446903601,6.258367434397753,14.044586893807201,3.0640065,-6.3237438542,-2.441261726666666,True,1.211199999999999
mp-557816,Ba10 Li4 W6 O30,50,Hexagonal,186,720.5008405512312,6.877357091118886,14.410016811024626,2.38167621,-7.840251648800001,-2.779990600866666,True,2.291499999999999
mp-1228411,Ba10 Li4 U6 O30,50,Tetragonal,87,781.5783921908924,7.030693826766965,15.631567843817848,2.92084727,-8.2495583644,-3.389303742866665,False,1.2725
mp-560883,Ba10 Mn6 Cl2 O24,42,Hexagonal,176,773.7876098427345,4.630591561652127,18.423514520065105,1.2089368,-7.177180885714286,-2.49599062684729,True,1.7323
mp-1214575,Ba10 Mn6 O24 F2,42,Hexagonal,176,769.2935710274246,4.58660712621482,18.316513595891063,0.71307486,-7.259533331428573,-2.575233092799672,True,1.8397000000000001
mp-759718,Ba10 Mn10 O28,48,Orthorhombic,40,665.8734751937594,5.911828500566235,13.872364066536655,2.52491486,-7.686957222499999,-2.492107004568965,False,1.0239
mp-1229142,Ba10 Na4 Ru6 O28,48,Monoclinic,4,762.2777945610339,5.48874420779035,15.880787386688207,3.00755337,-6.837612556875,-2.280405142406608,True,0.1436
mp-1228715,Ba10 Nb6 O6 F40,62,Hexagonal,176,1017.8491192283243,4.5461806065853505,16.4169212778762,-0.949828,-6.6829723043548395,-3.682336164516129,False,0.7117
mp-3563,Ba5 Nb4 O15,24,Trigonal,164,353.45760053425505,6.09916822830891,14.727400022260626,1.9354784,-8.447367847916668,-3.271554933958334,False,2.5999
mp-19460,Ba5 Nd8 Mn4 O21,38,Tetragonal,87,617.3120805117488,6.445957335709667,16.24505475030918,3.65650064,-8.12482620868421,-3.169686828861161,True,1.9202999999999992
mp-554501,Ba10 Os6 Cl2 O30,48,Hexagonal,185,853.3132454740321,5.965506378983942,17.777359280709003,2.46557632,-7.335777053541666,-2.363071434166666,False,0.6088
mp-628618,Ba10 Os6 N2 O36,54,Hexagonal,185,897.1658558101675,5.772206454463526,16.6141825150031,2.48560801,-7.409386760370371,-2.199069989074075,False,0.6002999999999991
mp-1105231,Ba10 P8,18,Orthorhombic,64,600.1986393214199,4.48490456719081,33.34436885119,3.9474605,-4.483248874999983,-1.010274563730141,False,0.9422
mp-29787,Ba15 Pt6 O27,48,Trigonal,150,815.7946760958519,7.45475117677773,16.99572241866358,3.09924655,-6.451364925416667,-2.309565526354167,False,1.6295000000000002
mp-556721,Ba10 Re6 Br2 O30,48,Hexagonal,185,860.9219648061186,6.037700248972867,17.935874266794137,0.92453556,-7.889627093125,-2.773144637604167,False,2.54
mp-556647,Ba10 Re6 Cl2 O30,48,Hexagonal,185,850.7402979037379,5.936433867775583,17.723756206327874,0.98163771,-7.916447550625,-2.7911485840625003,False,2.5265
mp-1214601,Ba10 Re6 I2 O30,48,Hexagonal,185,872.881670944586,6.133799313977271,18.185034811345542,3.64088463,-7.849905728541667,-2.738128853020833,False,1.9989
mp-555095,Ba10 Re6 N2 O36,54,Hexagonal,185,889.8949297915688,5.774327147639443,16.4795357368809,1.06242727,-7.905113393148149,-2.55915809101852,False,2.306499999999999
mp-698206,Ba10 Re6 O32,48,Hexagonal,185,846.4894876518973,5.8899214512579,17.635197659414526,0.8720849700000001,-7.9399052885416666,-2.685463896770834,True,0.5103
mp-558725,Ba10 Ru4 Br4 O18,36,Hexagonal,194,791.3738537392977,5.004769074426473,21.982607048313824,2.04613925,-6.677162481944445,-2.457761265555556,False,0.4718
mp-10089,Ba10 Sb8,18,Orthorhombic,64,757.0565238134271,5.148712487608282,42.058695767412615,3.37409542,-4.03895163444444,-1.137742783333328,False,0.264899999999999
mp-19471,Ba5 Sm8 Mn4 O21,38,Tetragonal,87,599.0527973555656,6.778101656142529,15.764547298830674,3.33056175,-8.158039166315788,-3.213333743861161,True,1.9766999999999992
mp-1214595,Ba5 Tm8 Ni4 O21,38,Tetragonal,87,530.5852282685119,8.164814609418208,13.962769164960838,2.88709065,-7.703923530263158,-3.16490736276316,True,2.3991
mp-1183410,Ba10 V10 O28,48,Monoclinic,5,728.7424842934679,5.310745127113748,15.182135089447248,4.58784981,-8.038175460833333,-2.8595979975,True,1.324899999999999
mp-1228122,Ba6 Bi2 Te3 O18,29,Orthorhombic,71,478.1673678144555,6.642303956607642,16.488529924636396,3.30372099,-6.440887887586207,-2.379262576206897,False,2.0681
mp-15387,Ba6 Cu11 F34,51,Triclinic,2,690.4075580689254,5.216579545595213,13.537403099390694,0.8494007100000001,-5.045211655294124,-2.659405699215693,True,0.2531
mp-1229259,Ba12 Gd2 Re6 O36,56,Monoclinic,12,862.4108756162934,7.038803094243852,15.400194207433811,1.92488791,-8.304911560714286,-2.876425396696429,False,1.938899999999999
mp-1215063,Ba12 Gd4 Fe8 O30,54,Monoclinic,13,920.2974177583552,5.780536212191125,17.042544773302875,4.21515723,-8.177274007407407,-2.704474228333334,True,2.1756
mp-1228690,Ba12 La4 Fe8 O30,54,Monoclinic,9,880.9222081723998,5.900595156101719,16.31337422541481,5.24334403,-7.497218047037037,-2.701463833518519,False,2.396199999999999
mp-16928,Ba6 Lu2 W3 O18,29,Trigonal,166,439.0332401427262,7.615227472090026,15.139077246300904,2.15659937,-8.236967478275862,-3.116453225632183,False,2.9903
mp-697671,Ba6 Mg7 H26,39,Orthorhombic,71,517.2622105147458,3.275425282315439,13.263133602942201,0.71706958,-3.3355986738461523,-0.484279003269229,False,2.9959000000000002
mp-569168,Ba12 Na2 Cu6 Te28,48,Hexagonal,193,1624.2941968429507,5.774009837235861,33.83946243422814,4.21252591,-4.11928365125,-1.2376389456130261,False,0.6019999999999991
mp-583297,Ba24 Nb16 S52 O12,104,Orthorhombic,62,2837.9948104455902,3.886138294255526,27.288411638899905,2.43973901,-6.754929852211538,-2.117944190961538,True,2.3692
mp-1228695,Ba12 Nd4 Fe8 O30,54,Monoclinic,9,890.4672742515856,5.877151841456913,16.490134708362696,2.26127363,-7.465011140555555,-2.681690976851851,False,2.3557
mp-1228608,Ba12 Pr4 Fe8 O30,54,Monoclinic,9,894.0335538377697,5.828935708853253,16.55617692292166,2.27298184,-7.460375761851852,-2.675031596234568,False,2.368999999999999
mp-570423,Ba12 Pr6 I38,56,Monoclinic,15,2357.3897974076367,5.153187515241578,42.096246382279226,4.27196977,-3.865827788035716,-1.9066669416071442,True,1.0187
mp-16094,Ba24 Si100,124,Cubic,213,2842.8849149399643,3.565600318115223,22.92649124951584,6.02423767,-4.932573431774193,-0.18590245145161302,False,0.043199999999999
mp-1196224,Ba24 Sn24 Se52,100,Orthorhombic,19,3269.615981604411,5.206075344622927,32.69615981604411,3.93730347,-4.7086236707,-1.46789847151875,True,9.999999999976698e-05
mp-1204773,Ba12 Sn14 S40,66,Monoclinic,15,1899.2235825078342,4.015307072948397,28.776114886482336,2.549171089999999,-5.054459762727273,-1.346943278636363,True,1.3643
mp-1228124,Ba6 Ti5 Pt1 O18,30,Trigonal,156,413.8203983540239,6.205127003742556,13.794013278467464,3.12908118,-8.105652185333334,-3.234794147555556,False,2.0101
mp-555781,Ba12 Ti10 S30 O2,54,Orthorhombic,20,1286.0565566159848,4.029203227292145,23.815862159555277,3.90918352,-6.473844353703703,-2.102930863302469,True,0.696499999999999
mp-1228593,Ba12 Y2 Re6 O36,56,Monoclinic,12,858.1162963366921,6.80952465609354,15.323505291726645,1.9186208100000002,-8.042322923035714,-2.8840878568750012,False,1.9671
mp-1196872,Ba12 Y4 Co8 O30,54,Monoclinic,13,879.2183485874804,5.580962431652299,16.281821270138526,3.29832255,-7.299560093703702,-2.585296590185184,False,1.209299999999999
mp-1198058,Ba12 Y4 Fe8 O30,54,Monoclinic,13,894.5862494955468,5.439229619153782,16.56641202769531,4.30504702,-7.646792409074073,-2.734513425555554,False,2.4647
mp-16663,Ba12 Y4 Ti8 O34,58,Hexagonal,194,936.6471548605319,5.195284338903919,16.149088876905722,2.09923881,-8.365232755344827,-3.529738348735632,True,2.6243