material_id,composition,nsites,crystal_system,space_group,volume,density,density_atomic,efermi,energy_per_atom,formation_energy_per_atom,is_gap_direct,band_gap
mp-29022,K8 Ge4 Se16,28,Monoclinic,14,867.6056567165439,3.57275091405376,30.98591631130514,0.53312283,-3.9978595692857173,-1.016514824839289,False,1.7939
mp-28126,K8 Ge4 Te16,28,Monoclinic,14,1074.7811431886032,4.086447602935207,38.3850408281644,1.75003199,-3.563985572857143,-0.784129733738094,False,1.0714
mp-696941,K8 H8 Ru4 O20,40,Orthorhombic,19,599.4764869817615,2.894957805770508,14.986912174544036,0.29046611,-5.903876563,-1.597148574199999,False,0.8767
mp-643257,K2 H4 Pd1,7,Tetragonal,139,129.0988210747073,2.426497539034409,18.442688724958185,-1.47780487,-7.331484895714285,-0.35756616892857,False,2.3826
mp-643801,K2 H6 Pb1 O6,15,Trigonal,148,172.67703851419463,3.725801208106891,11.511802567612976,-0.2656308,-5.186129767333333,-1.4505196888,True,2.1354
mp-568855,K8 Hg4 P8 Se24,44,Monoclinic,14,1355.568189860557,3.990944380473466,30.808367951376294,1.03824065,-3.903611343863636,-0.7782633984407471,True,1.4002000000000001
mp-17792,K4 Hg6 Ge4 S16,30,Orthorhombic,41,796.9853382781444,4.507776025400731,26.566177942604813,1.00018386,-3.829443299333335,-0.793130778800002,False,1.552099999999999
mp-17307,K4 Hg6 Ge4 Se16,30,Orthorhombic,41,951.2862544516754,5.08634183485221,31.709541815055847,0.63983605,-3.446487876,-0.7528143367166671,False,1.2695
mp-1211986,K8 Hg12 S16,36,Orthorhombic,60,972.0182532993251,5.522907988239209,27.000507036092365,0.9916476200000001,-2.9522457338888852,-0.7583353085555531,True,1.7408000000000001
mp-1212008,K8 Hg12 Se16,36,Orthorhombic,60,1081.740317816957,6.114501733337163,30.04834216158214,0.551943899999999,-2.689344493888888,-0.7809665529305561,True,1.1091
mp-1211969,K4 Hg12 S14,30,Tetragonal,113,801.4766343929779,6.241205011494901,26.71588781309926,2.38361432,-2.8193836820000002,-0.613431105800002,True,1.3918
mp-725973,K8 Hg4 Cl16,28,Orthorhombic,55,818.6646383240004,3.412486011791583,29.23802279728573,-0.94552429,-13.842229646428573,-1.554502505714286,True,2.3613
mp-5860,K2 Hg1 O2,5,Tetragonal,139,106.7884172544058,4.832652372770474,21.35768345088116,-0.13230634,-3.832401744,-1.338735045400001,True,2.0773
mp-28859,K8 Hg4 S8,20,Orthorhombic,57,619.1392206959077,3.678826292061515,30.956961034795388,0.0554539,-3.196724389499999,-1.0268982659,True,2.1351
mp-1172870,K2 Ho4 Cu4 S9,19,Monoclinic,12,403.49503993574325,5.27052475455642,21.236581049249644,3.93423175,-5.563589257894737,-1.653298726684208,False,0.8687
mp-581517,K8 In4 P8 Se32,52,Monoclinic,9,1629.0426082000201,3.615139045680322,31.327742465385004,1.47857291,-4.177520755769231,-0.8067398280155671,False,1.1954999999999991
mp-21836,K4 In24 Se38,66,Trigonal,148,2035.6086982679337,4.823100763142531,30.842556034362634,2.18744077,-3.967491252121213,-0.88278996603125,True,0.8553000000000001
mp-21741,K16 In16 As24,56,Monoclinic,14,1658.4135459592146,4.266240065992982,29.614527606414548,3.03178717,-3.512574681071425,-0.39950974826190105,True,1.000699999999999
mp-1199715,K8 In8 P12 Se40,68,Monoclinic,14,2031.4981151238244,3.891963504306067,29.87497228123271,1.47546964,-4.232792630294114,-0.76299131942349,True,1.5675
mp-579637,K16 In16 Sb24,56,Monoclinic,14,2000.8186941101549,4.469089665389393,35.72890525196705,3.14526469,-3.298649794285712,-0.41749398683333006,False,1.207199999999999
mp-21705,K8 In12 Ag4 Se24,48,Monoclinic,15,1457.8481808855563,4.575631956806841,30.371837101782422,1.44269779,-3.844888540625,-0.9816662723107631,False,1.489199999999999
mp-21713,K8 In12 Cu4 Se24,48,Monoclinic,15,1465.321734016757,4.351386864837917,30.527536125349105,2.20631496,-3.945517011041666,-0.9776056600885401,True,1.2031
mp-862780,K4 In2 P4 S14,24,Monoclinic,12,657.3049948043374,2.422287583060256,27.387708116847392,1.6930908100000002,-4.702642305,-0.967527537329363,True,1.8783999999999992
mp-1223734,K4 La4 Sb4 S18,30,Orthorhombic,55,800.1674206959846,3.686092510301465,26.672247356532818,3.86442707,-5.279837635666666,-1.437304819466665,False,1.1627
mp-1212017,K8 La4 I20,32,Orthorhombic,62,1331.30143334005,4.248941927246774,41.60316979187656,1.4539648,-3.612478894374998,-1.7601276911874981,False,2.7532
mp-542081,K8 La4 P8 S28,48,Monoclinic,14,1299.2392802548109,2.574087964414362,27.06748500530856,2.15122878,-5.270626837708334,-1.354109289898809,False,2.3832
mp-542078,K8 La4 P8 Se28,48,Monoclinic,14,1491.8973033194911,3.703166168807635,31.081193819156066,2.48438505,-4.715976525208333,-1.174220363140996,True,1.4904
mp-1204933,K4 La2 Ta10 O30,46,Tetragonal,127,639.042092816727,7.077393004369493,13.892219409059281,4.46793952,-9.485303580652175,-3.365616652876812,False,2.5845000000000002
mp-1198663,K8 Li4 H24 N12,48,Tetragonal,84,588.981642609661,1.502204177160257,12.270450887701271,1.85688084,-4.620002415208333,-0.490211233569444,False,2.3848000000000003
mp-504806,K2 Li14 Pb3 O14,33,Orthorhombic,71,387.24512422429393,4.377970212066324,11.734700734069513,1.01975631,-5.222623771212121,-1.9075615027626251,False,2.018199999999999
mp-757868,K8 Li12 Co4 O16,40,Monoclinic,14,506.42444946472926,2.9110545680355813,12.660611236618232,1.18919203,-5.261573122500001,-1.770096243949999,False,1.4735
mp-774432,K8 Li12 Ni4 O16,40,Monoclinic,14,497.7161659886655,2.958787662024303,12.442904149716638,0.860853299999999,-5.0193572445,-1.66320836995,False,1.8411
mp-23774,K4 Li2 Al2 H12,20,Trigonal,166,240.33102027080037,1.632919063202705,12.016551013540019,0.14027695,-3.19973158,-0.37090790253333306,False,2.5761000000000003
mp-6450,K4 Li2 Al2 P4,12,Orthorhombic,72,281.39355426822783,2.054378922727279,23.449462855685653,2.54664006,-3.757928458333333,-0.633230926186506,False,1.8853
mp-1207213,K2 Li1 Cu1 F6,10,Cubic,225,132.84509466629146,3.283376565451131,13.284509466629146,-0.77199652,-4.580088817,-2.604690493783333,False,0.9248000000000001
mp-9703,K8 Li4 Ga4 As8,24,Orthorhombic,64,615.6367229123363,3.287474868282158,25.651530121347346,1.707958699999999,-3.329945701666666,-0.5732784683888881,False,1.1937
mp-505431,K8 Li4 In4 As8,24,Orthorhombic,64,663.9452286501603,3.499412588780623,27.66438452709001,2.2786038,-3.2627029725,-0.5508561190833331,False,1.1838
mp-1111665,K2 Li1 Rh1 F6,10,Cubic,225,128.5669864768903,3.900989451475024,12.85669864768903,0.14166667,-4.964962657999999,-2.6630542147833323,True,1.7665000000000002
mp-680450,K32 Li16 Sn64,112,Monoclinic,15,3887.5016966723133,3.827094123783893,34.70983657743137,3.5806804,-3.174258316875,-0.28712264085118905,True,1.0043
mp-767165,K8 Li4 V4 S16,32,Monoclinic,9,827.8236993955182,2.120960792499198,25.869490606109945,0.6177697400000001,-5.13028147,-1.404155638479165,False,1.602199999999999
mp-759183,K8 Mg4 H32 N16,60,Monoclinic,14,715.0597939625715,1.547464386478323,11.917663232709524,-0.23256801,-4.824359440333334,-0.5305159769666661,True,2.5305
mp-11643,K4 Mg2 P4 Se12,22,Monoclinic,14,663.4203466102832,3.194870909454065,30.155470300467417,1.42957251,-4.218792093636363,-0.9733716048043821,False,1.8749
mp-755802,K8 Mg4 O8,20,Orthorhombic,60,337.6356191076174,2.645966906733719,16.88178095538087,0.78061274,-4.7230745555,-1.965248261399999,True,2.7608
mp-669410,K8 Mn4 Sn8 Se24,44,Tetragonal,130,1416.8781586481362,3.9580466223368003,32.20177633291218,2.00223036,-4.614402710227273,-0.939914772635775,False,0.8791
mp-1195778,K4 Mn6 As6 O24,40,Monoclinic,15,516.6294258350465,4.241226071868924,12.915735645876163,2.58741009,-7.136158025250006,-1.9794237762896612,True,0.615699999999999
mp-27304,K2 Mn1 Cl6,9,Cubic,225,226.0731965561247,2.54033577203331,25.119244061791633,-0.3952274,-8.711955285555554,-1.6414557374425272,False,1.0996
mp-557610,K2 Mn1 F4,7,Tetragonal,139,113.96163389926605,3.047215366478987,16.280233414180863,0.34329632,-5.716676774285715,-2.990939026061577,False,2.807
mp-1211832,K4 Mn2 I8,14,Monoclinic,11,602.0100995757731,3.534806477615153,43.000721398269505,2.623789979999999,-3.771326088571427,-1.268353917490147,True,2.0705
mp-8713,K4 Mn2 S4,10,Orthorhombic,72,272.5577633896386,2.403642042022516,27.25577633896386,1.8534418,-9.883736536,-1.325764393521552,False,0.9719999999999991
mp-8716,K4 Mn2 Se4,10,Orthorhombic,72,305.50601815727936,3.163980935322065,30.550601815727937,1.30094328,-4.802145603,-1.118830064423706,False,0.9895
mp-628305,K8 Mn4 Sn4 Se16,32,Tetragonal,118,949.2267982172823,3.9723384645348903,29.66333744429007,2.24322585,-4.695371919687499,-1.018125356788253,True,0.2833
mp-18251,K4 Mn2 V4 O14,24,Tetragonal,113,435.6780882129184,2.645207081318002,18.153253675538267,-0.1507333,-7.742348570833332,-2.389990744785918,True,2.41
mp-19228,K4 Mn2 V8 O24,38,Monoclinic,14,659.1562992894085,2.664764725567935,17.346218402352854,-0.48702643,-8.031880548421052,-2.393148386443738,False,2.0298
mp-542671,K4 Mo2 I8 O28,42,Monoclinic,15,726.3887534749617,4.141106929491171,17.294970320832423,1.27284211,-5.511693512619049,-1.29855569902381,False,2.9387
mp-558124,K8 Mo4 S8 O40,60,Monoclinic,14,984.8369896206235,2.686037555280334,16.41394982701039,-0.6619755700000001,-6.796488332166667,-2.072173749466667,False,2.8802000000000003
mp-1224145,K8 Mo8 P8 O44,68,Monoclinic,4,1029.6346197513753,3.277212824576943,15.141685584579049,1.18070407,-7.686442697205884,-2.438645181252102,True,2.4334
mp-1195788,K8 Mo8 Se8 O44,68,Orthorhombic,62,1089.9361367268739,3.68076241181482,16.028472598924616,0.13422272,-6.846138006470588,-1.8241713196580882,True,2.787
mp-560268,K4 Mo6 As8 O40,58,Monoclinic,15,925.5834406987041,3.536749559522046,15.958335184460415,-0.45386874,-7.111858719137931,-1.855327684465518,False,2.6696
mp-561554,K8 Mo4 As8 O36,56,Monoclinic,14,889.5592266894438,3.494268847103922,15.884986190882925,-0.52753584,-6.740801615535714,-1.956495639428571,False,2.7838000000000003
mp-559914,K8 Mo4 Cl20 O4,36,Orthorhombic,62,990.0792095178269,2.464787494750122,27.502200264384083,0.18633646,-4.877535079166667,-1.844305683555556,False,2.767
mp-17980,K8 Mo4 S16,28,Orthorhombic,62,795.2196995838813,2.52579943967571,28.400703556567187,0.7211542400000001,-11.1437310975,-1.108230577321427,True,1.412799999999999
mp-866641,K8 Na4 H24 N12,48,Tetragonal,84,613.8673051731229,1.6149566997390692,12.788902191106727,-0.22838902,-4.52003193875,-0.437507597781609,False,2.11
mp-559878,K8 Na8 Ir4 O16,36,Monoclinic,14,598.832910134506,4.21923158371392,16.63424750373628,1.9902489600000002,-5.290477010555556,-1.5597593213620682,False,0.31210000000000004
mp-504962,K8 Na12 In4 O16,40,Orthorhombic,58,692.2273335677727,3.127903233566823,17.305683339194317,1.81734416,-4.530948316249999,-1.6470563617804581,True,2.065699999999999
mp-541694,K8 Na12 Si4 P12,36,Orthorhombic,62,930.8342820515055,1.913600490670543,25.85650783476404,1.941492419999999,-3.515255751388889,-0.408629041674055,False,0.8900999999999991
mp-17375,K8 Na12 Tl4 O16,40,Orthorhombic,58,674.2531190631987,4.093606326229336,16.85632797657997,1.05195588,-4.297757031000001,-1.4526352391971271,True,1.5642
mp-14324,K4 Na8 Be4 O10,26,Tetragonal,136,364.0547843867404,2.446436485075206,14.002107091797708,0.98902677,-5.07521474576923,-2.009964490770556,False,2.4341
mp-1223676,K4 Na8 Co4 O10,26,Monoclinic,14,426.88714219653764,2.863098827769772,16.41873623832837,1.63320533,-5.038679890000001,-1.451275195770557,False,0.0758
mp-9069,K4 Na2 Al2 As4,12,Orthorhombic,72,326.0269465975904,2.831964108496172,27.168912216465866,1.922594479999999,-3.336429488333333,-0.554715968479885,False,1.026
mp-24412,K2 Na1 Al1 H6,10,Cubic,225,129.35191423025097,1.7229753570028041,12.935191423025097,0.11558888,-4.650418388,-0.34407027,False,2.3466
mp-9068,K4 Na2 Al2 P4,12,Orthorhombic,72,302.2962258458198,2.088640709403263,25.191352153818315,2.37100221,-7.41859221,-0.69576564390873,False,1.4926
mp-34127,K4 Na2 As2,8,Hexagonal,194,258.85755468784225,2.259421505249716,32.35719433598028,0.78506566,-2.418341467499999,-0.349695778344826,True,0.1469
mp-567836,K4 Na2 B2 P4,12,Monoclinic,12,330.3958238999362,1.7484621162432532,27.532985324994684,1.29638717,-3.9000556325,-0.38092245822194803,False,1.771
mp-1111105,K2 Na1 Co1 F6,10,Cubic,225,142.06633240871798,3.203928252361139,14.206633240871799,1.46711521,-4.954517428,-2.7324183085879303,True,2.9932
mp-1206266,K2 Na1 Cr1 Cl6,10,Cubic,225,263.3100624206765,2.307515398921579,26.33100624206765,0.3681124,-4.392881088,-1.958004638587931,True,1.3875
mp-13797,K2 Na1 Cu1 F6,10,Cubic,225,146.63946480748984,3.156245009693247,14.663946480748985,-1.37409899,-4.495773594,-2.577095479587931,False,0.7248
mp-9676,K4 Na2 Ga2 As4,12,Orthorhombic,72,340.98814972022853,3.12399227033998,28.415679143352378,1.53270087,-3.148599350833333,-0.48646579889655206,True,0.8055000000000001
mp-9666,K4 Na2 Ga2 P4,12,Orthorhombic,72,304.7209390148981,2.537849676287867,25.39341158457484,1.8715992,-3.353951118333333,-0.44336723544416906,True,1.307899999999999
mp-21510,K4 Na2 In2 As4,12,Orthorhombic,72,352.0592903600018,3.45114699622828,29.338274196666816,2.0740857,-3.090330409166668,-0.473017237090997,True,0.622899999999999
mp-21511,K4 Na2 In2 P4,12,Orthorhombic,72,336.3988972262906,2.744063558070442,28.033241435524218,2.37766188,-3.269784761666666,-0.40402125863861404,False,1.0504
mp-505767,K8 Na4 In4 Sb8,24,Orthorhombic,64,840.0208218739232,3.633520252709595,35.00086757808013,2.73102345,-2.954904937083333,-0.517965529174328,True,0.5808
mp-1079339,K2 Na1 Mn1 F6,10,Tetragonal,139,150.89798291059512,2.972446846605264,15.089798291059513,-0.75197735,-5.408433609,-2.983474632381034,True,1.5314
mp-555116,K8 Na4 Mn4 O16,32,Orthorhombic,70,527.2949262843085,2.772802740252729,16.47796644638464,0.5890089900000001,-5.889207165,-1.819417222976293,False,1.8124999999999991
mp-14039,K2 Na1 Rh1 F6,10,Cubic,225,154.60154636911963,3.416447498872315,15.460154636911962,0.0582441,-4.878004295999999,-2.63281606158793,True,2.000099999999999
mp-560950,K8 Na4 Tl4 O12,28,Monoclinic,14,552.8994090704725,4.247523147988233,19.74640746680259,0.70260603,-4.404725921071429,-1.4304665845303781,True,1.261899999999999
mp-559790,K4 Nb6 Cl14 O10,34,Monoclinic,15,801.9890682290443,2.83696713391495,23.58791377144248,-0.71003492,-6.578440292647059,-2.4463073990882362,True,2.3144
mp-17508,K2 Nb4 Fe2 O13,21,Monoclinic,12,307.880767074303,4.150281933554782,14.660988908300142,1.28936378,-8.58259765952381,-2.681097893309524,False,1.8139999999999992
mp-15214,K4 Nb2 Ag2 S8,16,Orthorhombic,70,465.9022362938009,2.902854851725527,29.118889768362557,0.8003658100000001,-5.210185245625,-1.240132691395833,False,2.129099999999999
mp-9763,K4 Nb2 Cu2 S8,16,Orthorhombic,70,437.92127287621315,2.7522049109512032,27.370079554763322,1.35108844,-5.4204759425,-1.293389764312499,False,1.9582000000000002
mp-9003,K4 Nb2 Cu2 Se8,16,Orthorhombic,70,485.22742179353367,3.767752670053107,30.326713862095854,1.10917039,-4.97523418,-1.1693720467343751,False,1.6164
mp-555717,K4 Nd4 Ir2 O14,24,Trigonal,167,368.0013563979034,6.054568445772431,15.333389849912642,2.11527706,-7.074149463333334,-2.468049836208333,True,0.2913
mp-16690,K8 Nd4 P8 S28,48,Monoclinic,14,1292.9685421209501,2.613986458506163,26.936844627519793,1.73352459,-5.225170698749999,-1.322641456982141,True,2.4772
mp-556059,K4 Ni2 N8 O24,38,Monoclinic,9,561.8309902740338,2.275265832515324,14.785026059842993,-0.838299,-6.494935695263158,-1.191171528657895,False,2.944
mp-17228,K4 Ni6 S8,18,Orthorhombic,70,372.6678223555598,3.409026820706266,20.70376790864221,3.41967316,-4.961647047777777,-0.9442484082777751,False,0.7685999999999991
mp-1188089,K4 Ni6 Se8,18,Orthorhombic,70,428.58778675497774,4.41777039935207,23.810432597498764,3.03408375,-4.567219577777777,-0.835353422652776,False,0.4373
mp-9673,K4 Ni2 As4,10,Orthorhombic,63,263.3297173807489,3.616239633165227,26.33297173807489,2.79258577,-3.883572323000001,-0.406948084900001,False,0.08029999999999901
mp-605034,K2 Ni1 F6,9,Cubic,225,128.12432984816914,3.251503735631345,14.23603664979657,-3.04040066,-4.554050083333329,-2.384495597166662,False,2.3603
mp-19252,K2 Ni1 O2,5,Tetragonal,139,98.06519350673187,2.8597960222445513,19.613038701346376,0.74960464,-4.888527124,-1.3007674969,False,0.577
mp-9672,K4 Ni2 P4,10,Orthorhombic,63,243.9804729994642,2.7065893630654623,24.39804729994642,3.51057219,-8.972746016,-0.568266484690475,False,0.6445000000000001
mp-1025162,K2 Np1 O4,7,Tetragonal,139,121.32610783039469,5.189870458948236,17.332301118627814,3.01213477,-7.890692515714284,-2.890354923321427,False,0.2662
mp-971,K4 O2,6,Cubic,225,129.6009765025592,2.413811101405781,21.600162750426534,0.47156282,-3.6374448533333332,-1.233878036499999,False,1.7072
mp-2672,K4 O4,8,Orthorhombic,64,150.3161849315957,2.434651554559929,18.789523116449462,0.88468063,-4.3246242175,-1.284958853625,False,2.3575
mp-762088,K12 Os6 O30,48,Hexagonal,174,856.9983391637969,4.050679958772921,17.854132065912435,-0.53674797,-6.584142516458333,-1.805403528895832,False,1.6618
mp-7505,K4 P4 Pd2,10,Orthorhombic,63,264.3850171311265,3.097220597193998,26.43850171311265,2.40998704,-4.171035033,-0.516321371757141,False,1.0789
mp-1224154,K8 P8 Pd4 O28,48,Orthorhombic,62,756.0603389309309,3.150027747050063,15.751257061061061,1.03962558,-6.782352689374999,-2.373244744273808,False,1.1969
mp-569857,K8 P12,20,Orthorhombic,70,574.7815911954909,1.9774323955365691,28.739079559774545,2.26680503,-8.3585340175,-0.549982655785713,False,1.0327
mp-9687,K4 P2 Au2,8,Orthorhombic,63,224.43918719240853,4.529978387586348,28.054898399051066,2.01925133,-18.50150657125,-0.595615487619046,True,0.9515
mp-9509,K4 P2 Au2 S8,16,Monoclinic,11,444.1260999059251,3.248325529571162,27.75788124412032,1.48538495,-4.44809615375,-1.009904498642856,True,1.5691000000000002
mp-1202353,K16 P8 S24,48,Monoclinic,14,1387.598635878258,1.966085568030901,28.908304914130373,0.77525511,-4.537646933125,-1.188764987565474,True,2.887
mp-31314,K16 P8 Se24,48,Monoclinic,14,1520.5090442976496,3.023356670015753,31.677271756201034,0.49103021,-4.076642587499997,-1.048984686862347,False,1.973899999999999
mp-20694,K4 Pb4 O6,14,Cubic,199,300.63874424946636,5.971810365572381,21.474196017819025,2.60597878,-5.065968457142852,-1.5614089427857092,False,1.6906999999999992
mp-1211440,K4 Pb2 Cl12,18,Monoclinic,14,535.3762610553601,3.089934362473732,29.743125614186674,-1.01233193,-13.138757877777778,-1.445836170277776,False,1.6065
mp-556517,K8 Pb4 O8,20,Triclinic,2,449.95322655363185,4.685353322575296,22.49766132768159,1.4594664,-4.710460267499999,-1.536198562399998,True,1.9147
mp-561277,K8 Pb4 O12,24,Hexagonal,193,390.0948599940293,5.676722733642449,16.25395249975122,1.66398399,-5.058117122499998,-1.588238867416664,False,1.1376
mp-556518,K8 Pd4 N16 O48,76,Monoclinic,14,1137.5576130757233,2.526146556332875,14.967863329943729,-0.90122393,-6.4069929247368425,-1.134821119710526,False,1.8362
mp-1195978,K8 Pd4 S24 O84,120,Triclinic,2,1888.914348687941,2.507163741063827,15.740952905732842,-0.97449016,-6.292888861666666,-1.753556869483333,False,1.4223
mp-9910,K4 Pd6 S8,18,Orthorhombic,70,423.4640499661529,4.123008563914228,23.525780553675162,1.89278094,-13.394107405555555,-0.8321201798611101,False,1.2114
mp-14339,K4 Pd6 Se8,18,Orthorhombic,70,466.0077766554914,5.083421048780456,25.88932092530508,1.8284183,-4.443994464444446,-0.9122132659861111,False,0.764
mp-27138,K2 Pd1 Br4,7,Tetragonal,123,239.305784744677,3.498862059881381,34.186540677811,-0.797167299999999,-3.482016345714285,-1.483386717785713,False,1.204899999999999
mp-1205761,K2 Pd1 Br6,9,Cubic,225,274.2280684450501,4.020979195750913,30.469785382783343,-0.52223811,-3.225186222222222,-1.306930614944443,False,0.5077
mp-22956,K2 Pd1 Cl4,7,Tetragonal,123,204.04052077882238,2.6565676302263412,29.148645825546055,-0.4736166,-10.062401124285714,-1.547152971071427,False,1.4279
mp-23067,K2 Pd1 Cl6,9,Cubic,225,230.9616631159454,2.85670624687467,25.662407012882824,-0.55714191,-9.303229534444444,-1.313050104722221,False,1.2027
mp-28163,K2 Pd1 F4,7,Monoclinic,12,119.31791917142013,3.6268939528489152,17.04541702448859,-1.02281075,-4.570326758571428,-2.413465222071428,False,1.8732000000000002
mp-7979,K2 Pd1 F6,9,Trigonal,164,129.11757828693635,3.8402874923866532,14.346397587437373,-2.02499874,-4.484720547777774,-2.3818610471666632,False,2.0399