material_id,composition,nsites,crystal_system,space_group,volume,density,density_atomic,efermi,energy_per_atom,formation_energy_per_atom,is_gap_direct,band_gap
mp-727793,Gd8 S24 O96,128,Orthorhombic,61,1977.0877160139903,2.9929551942454062,15.4459977813593,-1.17299285,-7.2653233478125,-1.8986525351562502,True,0.0048000000000000004
mp-646008,Gd20 S38,58,Tetragonal,86,1217.5235668486775,5.951188624373995,20.991785635322028,4.90858296,-22.26340875275862,-2.034614423049569,True,0.44500000000000006
mp-557726,Gd8 Au20 F84,112,Tetragonal,92,1820.4517227746703,6.196467216147256,16.254033239059556,0.12181104000000001,-5.2314623623214285,-2.206013992499999,False,1.5508000000000002
mp-554636,Gd16 B8 O24 F24,72,Monoclinic,14,876.6839274110141,6.5203639334982615,12.176165658486306,4.05402227,-10.03458604888889,-3.877133116574075,False,2.7369
mp-505435,Gd8 Br12 N4,24,Triclinic,2,650.8762502796291,5.798640520789002,27.11984376165121,1.2063591200000001,-9.095488422499999,-2.195261450833333,False,1.8727
mp-1025163,Gd2 C1 N2 O2,7,Trigonal,164,103.5262494947376,6.199745269610589,14.789464213533943,1.8812486700000002,-11.56324064,-2.427042429642857,True,2.4257
mp-29394,Gd2 C1 Cl2,5,Trigonal,164,115.83032378253249,5.69735052548278,23.166064756506497,2.535882,-9.930597965999999,-1.714998851499999,False,0.48610000000000003
mp-8301,Gd2 C1 F2,5,Trigonal,164,77.16918622007135,7.843531649018726,15.43383724401427,3.41776798,-10.765896819999998,-2.524173875499998,False,0.7328
mp-1078829,Gd4 Cl6,10,Monoclinic,12,273.76022379706694,5.105583282604672,27.376022379706693,4.06503389,-23.102012621,-2.051747162499998,False,0.1814
mp-1224730,Gd4 Cr2 Sb2 O14,22,Orthorhombic,74,271.19347820689035,7.350779497657932,12.32697628213138,4.27902406,-9.967468979090908,-3.006558049545453,True,1.9649
mp-1224759,Gd4 Fe2 Sb2 O14,22,Orthorhombic,74,277.80937041602766,7.2217360923578084,12.627698655273985,4.34623317,-9.694451140454545,-2.841088052727272,True,1.8178
mp-1224682,Gd4 Ga2 Sb2 O14,22,Orthorhombic,74,279.05188770022954,7.35474644653152,12.684176713646798,3.64346352,-9.32768449409091,-2.9690418779545453,False,2.377399999999999
mp-581229,Gd12 Ge12 O42,66,Triclinic,1,883.7901539425544,6.445801974604361,13.390759908220522,1.67598931,-9.543713381515152,-2.995165451969698,False,2.7793
mp-1224706,Gd2 Ge1 Mo1 O8,12,Tetragonal,82,152.53266518111653,6.652438944966585,12.71105543175971,2.44858908,-9.838556177500001,-2.9048386370833352,False,2.4793000000000003
mp-1190245,Gd4 Hf4 O14,22,Cubic,227,290.39267229586017,8.960227290516483,13.199666922539098,5.05320159,-11.51793759318183,-3.99954217727274,False,2.8263
mp-1195809,Gd8 Hf4 S20,32,Orthorhombic,62,655.4684022608096,6.620334872307802,20.4833875706503,4.61883534,-23.6619364790625,-2.146883803945314,True,1.0037
mp-756040,Gd4 Hg2 O8,14,Monoclinic,12,217.44629310547978,8.844460570474553,15.531878078962842,1.41594627,-9.876073277857145,-2.982678915357146,True,1.9856
mp-1225008,Gd4 In2 Sb2 O14,22,Orthorhombic,74,290.14657720063053,7.5896807714368055,13.188480781846842,3.9679199,-9.249006199090907,-2.914811062878784,True,2.3762
mp-1212711,Gd4 Mg2 Pt2 O12,20,Monoclinic,14,235.7637186024474,8.872860679167367,11.78818593012237,5.80886323,-9.437781278,-2.883619893499998,True,2.035799999999999
mp-1224833,Gd4 Mn2 Co2 O12,20,Monoclinic,14,227.28072273246812,7.662180417349195,11.364036136623406,4.59967451,-10.2240782045,-2.8105339522931043,False,0.9184000000000001
mp-1224711,Gd4 Mn2 Sb2 O14,22,Orthorhombic,74,282.50159594771554,7.091124147422819,12.84098163398707,4.05781526,-9.830547257727273,-2.914275617084638,False,1.6004
mp-582797,Gd8 Mo4 O24,36,Monoclinic,15,475.8633685646335,7.068898196428769,13.218426904573153,2.4272144,-10.772144469444445,-3.140404400555556,False,2.1748
mp-1201421,Gd4 Nb4 S14 O60,82,Tetragonal,113,1197.9800910234626,3.3398452227162982,14.609513305164178,-0.3356209,-7.761908543536585,-2.25551338054878,False,0.029799999999999
mp-504886,Gd16 O24,40,Cubic,206,630.9088590562675,7.632702112600969,15.772721476406687,1.60112538,-12.494637291,-3.895411792000001,True,2.9411
mp-669509,Gd8 S12,20,Orthorhombic,62,445.18002117190946,6.127634300946648,22.259001058595473,4.03454538,-24.5140683825,-2.334266813187497,False,0.5267000000000001
mp-4805,Gd2 S1 O2,5,Trigonal,164,85.80620611599412,7.326043273032852,17.16124122319882,2.98780161,-11.956347521999998,-3.519042310499998,False,2.019399999999999
mp-1188175,Gd8 Se12,20,Orthorhombic,62,505.5070882187631,7.244907554259087,25.275354410938156,3.5799460400000003,-28.0896133195,-2.143875060937501,True,0.449
mp-13973,Gd2 Se1 O2,5,Trigonal,164,90.2789475510091,7.825644602575555,18.05578951020182,3.3181010300000002,-11.744570188000003,-3.435754594468753,False,1.3547
mp-1194754,Gd12 Se6 O6 F12,36,Hexagonal,176,610.8746252158362,7.2979149630643825,16.968739589328784,2.66675406,-10.430216706944444,-3.692913088168403,False,1.348399999999999
mp-1205044,Gd8 Si16 C4 N24,52,Monoclinic,14,627.9093392036154,5.531270416834516,12.075179600069529,5.45658004,-9.741071866923077,-1.347852746730769,False,2.0209
mp-1105966,Gd8 Te12,20,Orthorhombic,62,626.1443176199352,7.396977716201284,31.30721588099676,5.12201495,-34.242153842,-1.633017135999995,True,0.056499999999999
mp-542515,Gd4 Te8 O22,34,Monoclinic,15,502.85849691037197,6.6102993283947,14.789955791481528,4.12607237,-7.8769690958823375,-2.279731501274494,True,0.24800000000000003
mp-16035,Gd2 Te1 O2,5,Tetragonal,139,99.17649819929923,7.9379650736019105,19.835299639859848,4.58523138,-11.526134439999998,-3.287839963333331,False,0.772899999999999
mp-768273,Gd6 As10 O24,40,Cubic,217,597.8819153535911,5.767767928607265,14.947047883839778,2.23744432,-8.780035457249998,-2.532309885124998,False,2.387
mp-10559,Gd3 Au1 O6,10,Triclinic,2,141.29338689390778,8.987227128426396,14.129338689390778,2.30043783,-10.608926939999998,-3.089925464999999,False,1.5063
mp-1104611,Gd6 C2 I6,14,Monoclinic,11,413.1238658562381,6.94945584295437,29.508847561159865,5.1373298,-9.195920867857142,-1.1917680025,False,0.061099999999999
mp-1189617,Gd6 Cu6 Sb8,20,Cubic,220,451.93153095176547,8.446722423745276,22.596576547588274,6.43070983,-7.9316534,-0.827454231,False,0.3003
mp-568189,Gd6 Cu2 Ge2 Se14,24,Hexagonal,173,577.4728731498519,6.67499624829497,24.061369714577165,3.730018229999999,-7.852251220833334,-1.56708608845052,False,0.7897000000000001
mp-641576,Gd6 Cu2 Si2 Se14,24,Hexagonal,173,564.2985710052795,6.568615404214872,23.512440458553314,3.78560046,-7.967154258333335,-1.6151316113671892,False,0.844399999999999
mp-2921,Gd12 Ga20 O48,80,Cubic,230,988.6948986657218,6.801126125140842,12.358686233321523,5.35452276,-8.770048860500001,-2.932829915874999,True,2.9042000000000003
mp-3594,Gd6 Ga2 O12,20,Orthorhombic,36,277.6131632618788,7.626027743241513,13.88065816309394,1.98221969,-11.008743098,-3.514320220750001,False,2.9661
mp-1200532,Gd12 In4 S24,40,Orthorhombic,58,875.4724745719321,5.909906834583522,21.886811864298302,4.33389106,-22.04383076325,-1.945870685937495,True,0.9636000000000001
mp-651160,Gd6 N2 Cl12,20,Triclinic,2,485.9655724845568,4.773360880079927,24.29827862422784,1.52726645,-20.050046993000002,-2.426606997374997,False,1.9483000000000001
mp-567291,Gd24 Os8 O56,88,Orthorhombic,33,1194.4624091849357,8.607835910918157,13.573436468010634,3.7722832200000003,-11.153036269204545,-3.144721616022726,False,0.13010000000000002
mp-30137,Gd12 Re4 O32,48,Monoclinic,14,617.70409659141,8.451323795856242,12.868835345654375,2.67649331,-11.124586856041667,-3.269572775416667,False,1.643199999999998
mp-17237,Gd6 Ru2 O14,22,Orthorhombic,63,287.5202868873723,7.910143674629698,13.069103949426015,3.02226574,-10.961211246818182,-3.130438856363636,True,0.13890000000000002
mp-1224717,Gd6 S2 O2 F10,20,Monoclinic,6,298.6937940102336,6.835830490199965,14.93468970051168,3.85233184,-10.0922366245,-4.003841707750001,False,1.9623
mp-1188599,Gd6 Sb8 Au6,20,Cubic,220,500.76448929863164,10.277567018322674,25.03822446493158,5.98315592,-7.700796348999999,-0.8441945809999991,False,0.4978
mp-505046,Gd6 Sb10 O24,40,Cubic,217,640.4107937531882,6.599223666848231,16.010269843829704,4.53314858,-8.74163874325,-2.629193494250001,False,2.7225
mp-1191117,Gd6 Sb2 O14,22,Orthorhombic,63,301.8171267999116,7.763111093357803,13.71896030908689,3.33976705,-10.725657238636362,-3.362648602727271,False,2.4705
mp-1213337,Gd12 Sc4 S24,40,Orthorhombic,58,859.2057584313796,5.481720541501213,21.480143960784492,4.65624564,-21.285348366,-2.305398591187497,True,0.389599999999999
mp-1104036,Gd6 Se4 N2 O2,14,Monoclinic,12,303.4192411494195,7.220490903626558,21.672802939244253,2.67840503,-11.472964950000001,-2.543475174955359,True,1.754
mp-1193201,Gd12 Se12 N4,28,Orthorhombic,62,669.5974190014309,7.168286120925683,23.91419353576539,2.85097649,-28.13289095642857,-2.096541347276781,True,1.0937000000000001
mp-559447,Gd6 Se8 O24 F2,40,Hexagonal,186,654.167368565744,5.06959893986025,16.3541842141436,0.58725681,-8.33142201875,-2.456352165468749,True,2.7821
mp-560513,Gd6 Si4 Cl10 O12,32,Monoclinic,12,654.4155945584475,4.065901502759885,20.450487329951486,0.09412832,-8.965306686562501,-3.214715929687502,True,2.531
mp-769809,Gd6 Ta2 O14,22,Orthorhombic,20,303.5146950783971,8.36732949153669,13.796122503563504,2.33403086,-11.869629019545455,-3.803172537939394,False,2.6563
mp-1194646,Gd12 Te8 N4 O4,28,Orthorhombic,62,681.1296557506997,7.381591244127151,24.32605913395356,4.81461388,-11.158874676428571,-2.33012935404762,False,0.844499999999999
mp-623092,Gd16 Au8 O36,60,Orthorhombic,60,827.7640900939973,9.36367798524881,13.796068168233289,3.16019328,-9.962731402000005,-2.803804601666671,True,1.9649
mp-554519,Gd4 Ti1 Se4 O4,13,Monoclinic,12,260.57637197615765,6.733915499892208,20.04433630585828,3.00493493,-10.513718957692307,-2.977144272516025,False,0.3285
mp-1205464,Gd6 Co1 Cl10,17,Triclinic,2,485.6156921306251,4.640069161170649,28.5656289488603,3.34512138,-8.780792406470585,-2.305758397058821,False,0.0748
mp-753421,Gd6 W1 O12,19,Trigonal,148,268.22828800099927,8.167683105215966,14.117278315842066,2.10944212,-11.869812219473685,-3.6176861284210533,False,2.7937000000000003
mp-1212867,Gd2 Ag2 W4 O16,24,Monoclinic,12,325.70233852137,7.7575565962879995,13.57093077172375,4.25815203,-9.228652167083334,-2.360401465555556,False,2.8117
mp-1194925,Gd4 B4 S12 O48,68,Monoclinic,15,892.106872629939,3.3969874226208012,13.119218715146161,3.0231958,-7.767340988088235,-2.323451295539215,False,2.6591
mp-1192012,Gd6 B6 N12,24,Trigonal,167,275.89077937779535,7.08082818630856,11.495449140741473,5.7583301,-18.869754802916667,-1.619539592916666,True,2.1031
mp-1195691,Gd4 Be8 B20 O44,76,Orthorhombic,33,764.1108685606499,3.523333128199678,10.054090375798026,1.3053474600000001,-8.844221597763157,-3.087406972543859,False,0.31020000000000003
mp-562809,Gd1 Bi2 Br1 O4,8,Tetragonal,123,145.83880843715707,8.187904483538329,18.229851054644634,3.59930058,-7.7956794525,-2.385056775625001,False,1.023199999999999
mp-549695,Gd1 Bi2 Cl1 O4,8,Tetragonal,123,139.30501392625655,8.042076734008294,17.41312674078207,3.89307278,-7.8708535425,-2.4337813325,False,0.8529
mp-628631,Gd1 Bi2 I1 O4,8,Tetragonal,123,153.29681338934662,8.29867445991187,19.162101673668328,4.17320534,-7.69388162375,-2.297375686875001,False,1.3080999999999992
mp-27182,Gd2 Br6,8,Monoclinic,12,302.4615696822174,4.358708510626524,37.80769621027717,-1.8354874300000001,-7.06509875375,-2.3183582925,False,2.2701000000000002
mp-29797,Gd2 Br2 O2,6,Tetragonal,129,128.73286510156947,6.530905844610014,21.455477516928244,1.513504489999999,-10.199326946666668,-3.312317020000002,False,0.08119999999999901
mp-23265,Gd2 Cl6,8,Hexagonal,176,196.30434204330473,4.459738773488724,24.53804275541309,0.79749129,-17.96989442875,-2.506313930624998,False,2.0054
mp-1190957,Gd4 Cr4 B16,24,Orthorhombic,55,237.82088340680014,7.051856321003847,9.90920347528334,6.11881946,-15.247536323333334,-0.604908909999998,False,0.2551
mp-1212488,Gd4 Cr4 Ge4 O20,32,Orthorhombic,55,374.91870981460823,6.41121405106148,11.716209681706507,5.43109182,-9.4522709346875,-2.815770610937499,True,2.412499999999999
mp-18331,Gd4 Cr4 O12,20,Orthorhombic,62,224.59516837845578,7.60771859687336,11.229758418922788,3.29044627,-10.8879147045,-3.173304159499999,True,2.6309
mp-1188719,Gd2 Cr2 Te2 O12,18,Trigonal,163,225.63087576978333,6.371041892938186,12.535048653876851,5.66039099,-8.807046405555555,-2.522575112962962,False,2.6147
mp-510471,Gd4 Cu4 S8,16,Monoclinic,14,302.8460745312874,6.249125134903366,18.927879658205462,5.04963769,-19.155279845,-1.576829978906249,True,0.9113000000000001
mp-510528,Gd4 Cu4 Se8,16,Monoclinic,14,343.51963819038775,7.322698829787978,21.469977386899235,4.37567504,-22.126860290625,-1.410129850156249,True,0.6894
mp-972965,Gd1 F3,4,Cubic,225,43.863326259651494,8.110705929293834,10.965831564912873,1.35545096,-17.350407805,-4.1566355175,True,2.862199999999999
mp-1203437,Gd8 H8 Se16 O64,96,Orthorhombic,61,1247.8206083658888,4.728672351518785,12.998131337144676,0.17258646,-7.1065225178125,-1.7692892116406251,False,2.8802000000000003
mp-23989,Gd2 H24 Cl6 O12,44,Monoclinic,13,505.4004951463328,2.442512447650355,11.486374889689381,-1.14008602,-5.646291110227273,-1.5530404768181811,False,0.43659999999999904
mp-735051,Gd2 H36 I6 O18,62,Orthorhombic,59,863.8730530804187,2.69147171724494,13.933436340006754,0.94065905,-5.353761273225807,-1.3443159497580641,True,2.0874
mp-1224646,Gd4 H4 C4 O16,28,Orthorhombic,19,303.3249190616337,5.129921335957862,10.833032823629775,1.06202351,-9.173805638928572,-2.532120183035715,True,2.8483
mp-1197842,Gd4 H4 S4 O20,32,Monoclinic,14,362.11234189888495,4.9584260895068955,11.316010684340155,4.30219892,-8.300861790625,-2.507180131718749,False,2.9383
mp-1207092,Gd1 H1 Se1,3,Hexagonal,187,51.68032895802392,7.62204236332006,17.226776319341308,3.79203447,-22.022079173333335,-1.6341865292708322,False,0.5979000000000001
mp-752520,Gd4 I4 O4,12,Orthorhombic,70,278.88416863544694,7.1487346099979,23.240347386287244,4.82098213,-9.421678547500001,-2.572313260833334,True,0.252299999999999
mp-1212862,Gd4 In8 Cl20,32,Orthorhombic,62,898.3540241854448,4.171160810732124,28.07356325579515,3.2947332400000002,-16.6447019509375,-1.730154382499998,True,1.1082
mp-1212640,Gd6 In6 O18,30,Hexagonal,185,433.53891373129386,7.355497910311508,14.451297124376461,4.94157912,-9.283875620666667,-2.948039821,True,1.7714
mp-703682,Gd4 Mn8 O20,32,Orthorhombic,55,356.9117880981024,6.459987829883305,11.1534933780657,2.963940039999999,-9.7665742178125,-2.624079486670259,False,1.1582
mp-510575,Gd4 Mn4 O12,20,Orthorhombic,62,228.9926389386748,7.5469574291453725,11.449631946933739,3.7885341,-10.598357226999923,-2.98195311758613,False,0.404099999999999
mp-559032,Gd2 Mo2 Cl2 O8,14,Monoclinic,12,257.8593298750831,4.541805743875453,18.418523562505936,0.25942077,-9.321694145714286,-2.669957121428571,False,2.4595000000000002
mp-555179,Gd4 Mo4 O16 F4,28,Monoclinic,14,420.14772887414256,5.314797187680995,15.005276031219378,0.38123681,-9.626060393928572,-2.9649934303571452,False,1.3117
mp-19721,Gd2 Nb2 O8,12,Monoclinic,15,153.80014840557192,6.783672995454353,12.81667903379766,2.6660833,-10.857381259166665,-3.529169375833331,False,0.20720000000000002
mp-1191365,Gd8 P8 S8,24,Orthorhombic,62,493.7809733225521,5.926483440989121,20.574207221773005,5.20687107,-21.905530255416664,-1.760836690679558,False,0.272699999999999
mp-1196177,Gd8 P8 S32,48,Tetragonal,142,1117.3674489091593,3.762655883763886,23.27848851894082,2.74063842,-15.299630847708334,-1.2097845242460321,False,1.4795
mp-17500,Gd4 Pt4 F28,36,Monoclinic,14,519.5353853411372,6.204755473805545,14.431538481698254,-1.2960471,-6.618376740555551,-2.891240942222216,False,2.3121
mp-558122,Gd4 S4 Cl4 O16,28,Monoclinic,14,421.5053878872158,4.5504192702608375,15.05376385311485,1.667510469999999,-8.316459643928571,-2.622906982857143,False,1.9163000000000001
mp-556135,Gd2 S2 I2,6,Orthorhombic,59,219.6715411132845,4.780726541939773,36.61192351888075,1.021183,-8.694775971666665,-2.115277830833331,False,1.487199999999999
mp-16801,Gd4 S4 O16 F4,28,Orthorhombic,62,393.3506439851639,4.598269416797423,14.048237285184426,0.9630647800000001,-8.668337607142858,-2.965455006785715,False,0.22260000000000002
mp-510490,Gd4 Sc4 S12,20,Orthorhombic,62,431.9132118420603,4.588943873902729,21.595660592103016,3.76566989,-18.042306378,-2.262208397687499,True,1.1773999999999991
mp-556551,Gd4 Se4 Cl4 O12,24,Orthorhombic,62,471.4269621147329,4.50385704114268,19.64279008811387,0.00894552,-8.169424495833333,-2.458681240390625,False,2.993
mp-1212518,Gd2 Ti2 Cl2 O6,12,Monoclinic,12,183.19504540406828,5.231350754290659,15.266253783672356,1.36858904,-9.955850465833317,-3.511843787222206,True,2.9895
mp-1212617,Gd4 Tl4 Mo8 O32,48,Orthorhombic,60,771.4617889995257,5.867673575576984,16.072120604156783,0.67065817,-8.839061369374999,-2.362179484652779,False,2.9359
mp-1212540,Gd2 Tl2 W4 O16,24,Monoclinic,15,339.2641482630862,8.392246947793044,14.136006177628593,4.9993619,-9.316769497083333,-2.487807592361111,False,2.9492000000000003
mp-569393,Gd1 Tl1 Se2,4,Trigonal,166,118.89280783398394,7.256440213235062,29.723201958495984,3.36586906,-32.88293513,-1.583077544531249,False,0.444399999999999
mp-1065609,Gd1 Tl1 Te2,4,Trigonal,166,142.0711022704712,7.209599812070217,35.5177755676178,4.42496201,-6.971109934999987,-1.287558399166655,False,0.058600000000000006
mp-1203163,Gd4 V4 Se8 O32,48,Monoclinic,11,657.7904507273996,4.989330431972655,13.703967723487493,3.44384012,-7.9769886575000015,-2.165693715390625,False,2.0264
mp-22024,Gd2 V2 O8,12,Tetragonal,141,165.79319203454685,5.452342505819097,13.816099336212238,0.46290579,-10.335239890833334,-3.1765945025,True,2.9685
mp-1078542,Gd2 Zn2 As2 O2,8,Tetragonal,129,144.50539189616975,7.206815381374429,18.06317398702122,4.07711523,-8.22158775875,-1.983100411874999,True,0.6654999999999991
mp-545506,Gd2 Zn2 P2 O2,8,Trigonal,166,137.04801368802816,6.533983624629969,17.13100171100352,4.34647863,-8.4544956725,-2.029670577410714,False,0.5757
mp-27218,Ge2 Br4 F20,26,Monoclinic,14,386.3967261057457,3.6308014262380173,14.861412542528681,-2.13891191,-3.892687461538462,-1.813037871153846,False,2.9063
mp-560370,Ge4 Pb8 S16,28,Monoclinic,14,741.818201029441,5.509326604610662,26.493507179622892,2.99463841,-4.839208095357143,-0.7532423432142841,False,2.0309
mp-1212561,Ge38 As8 Br8,54,Cubic,218,1232.3153107188523,5.38853229935286,22.82065390220097,3.68386339,-4.420523867407407,-0.23290144092592602,False,1.4249
mp-27625,Ge38 P8 Br8,54,Cubic,218,1182.0362671812604,5.123830975258883,21.889560503356673,2.63679085,-4.540793335,-0.242748539206349,False,1.559499999999999
mp-1212555,Ge38 P8 Cl8,54,Cubic,218,1162.487685735453,4.702030937909773,21.52754973584172,3.7117602,-4.620812085555555,-0.29141969494709,False,1.6502
mp-23420,Ge38 P8 I8,54,Cubic,218,1221.2844799883517,5.470406839522712,22.61637925904355,3.6559680500000002,-4.424544602407407,-0.143230757724867,False,1.2366
mp-540792,Ge8 S12 Br8,28,Triclinic,2,865.2873816027567,3.08034584777227,30.903120771527025,-0.57442793,-4.373222595,-0.8110758117857141,False,2.4518
mp-27928,Ge8 S12 I8,28,Trigonal,147,1114.1440580589715,2.952718099533369,39.79085921639184,-0.55439931,-4.175394439642857,-0.645514490714284,False,2.254299999999999
mp-14791,Ge2 Te5 As2,9,Trigonal,164,251.06513767964455,6.171655459102125,27.896126408849394,5.26811765,-4.079056517777777,-0.267630935370369,False,0.4092
mp-541312,Ge3 Te6 As2,11,Trigonal,166,309.2875463958525,6.084932588388326,28.117049672350223,5.76502675,-4.103691568181818,-0.27922211454545404,False,0.34279999999999905
mp-975924,Ge12 Ir8 Se12,32,Trigonal,148,639.09399973782,8.7222276759956,19.971687491806875,4.8106542,-5.9023884225,-0.6481776277539061,True,0.5894
mp-672289,Ge12 N16,28,Trigonal,159,348.2197732038494,5.225428290699124,12.43642047156605,3.20913518,-11.354154629285715,-0.192592425714287,False,2.064
mp-16610,Ge24 Os16,40,Orthorhombic,60,617.6215100547992,12.870450274103266,15.440537751369979,5.99507194,-29.60138010875,-0.08410202074999801,False,1.084299999999999