material_id,composition,nsites,crystal_system,space_group,volume,density,density_atomic,efermi,energy_per_atom,formation_energy_per_atom,is_gap_direct,band_gap
mp-540584,K2 Pd1 O2,5,Orthorhombic,71,80.7330356888642,4.455404544843593,16.14660713777284,2.16042024,-4.756591438000001,-1.2888827849,False,1.3697
mp-1068941,K2 Pd1 S2,5,Orthorhombic,71,121.035042309117,3.412676519986726,24.2070084618234,1.64574095,-11.281721762,-1.068325832624998,False,1.117
mp-1069706,K2 Pd1 Se2,5,Orthorhombic,71,135.7483202319117,4.190073255187324,27.149664046382338,1.42324451,-3.966355664000002,-1.079466821837501,False,0.8458000000000001
mp-1062676,K2 Pt1,3,Cubic,225,108.14578813658052,4.1961237720213305,36.04859604552684,-0.10184974000000001,-21.20566127,-0.030913012499998,False,1.3146
mp-27691,K2 Pt1 Br6,9,Cubic,225,278.63005027523803,4.4858599877322884,30.958894475026447,-0.33168394,-3.3638431300000002,-1.346559577166666,False,1.1688
mp-976876,K2 Pt1 C2,5,Trigonal,164,118.77412289190336,4.156474268621744,23.75482457838067,1.18412465,-5.440544359999997,-0.08230360989999601,False,0.9937999999999991
mp-22934,K2 Pt1 Cl4,7,Tetragonal,123,204.03195477243142,3.378281991785835,29.147422110347346,0.07500094,-14.097918777142857,-1.507347296785714,False,1.819599999999999
mp-23513,K2 Pt1 Cl6,9,Cubic,225,233.9692400014466,3.449255387622394,25.996582222382955,-0.28395751,-12.533272714444443,-1.373397363611109,True,1.8566
mp-3821,K2 Pt1 F6,9,Trigonal,164,131.16901761462003,4.902671899495277,14.574335290513337,-1.06482487,-4.631283225555553,-2.429395779388886,False,2.5717
mp-28247,K4 Pt2 I12,18,Tetragonal,128,699.9543674986297,4.909383163222444,38.88635374992387,1.607628319999999,-2.9474071011111143,-1.00541282827778,False,0.8659999999999991
mp-7928,K2 Pt1 S2,5,Orthorhombic,71,120.87900027423865,4.635077073055109,24.17580005484773,2.70672237,-17.029149536,-1.110300948624998,False,1.235599999999999
mp-8621,K2 Pt1 Se2,5,Orthorhombic,71,135.22322684189265,5.295136483309631,27.044645368378532,2.01132511,-4.153143052000002,-1.088003907837501,False,0.9345000000000001
mp-29334,K8 Pu4 Cl20,32,Orthorhombic,62,889.242063346347,3.730707456394862,27.788814479573343,2.52725875,-5.590511098750003,-2.310087857906251,False,0.06079999999999901
mp-2760749,K2 Pu1 Cl6,9,Triclinic,2,278.47387344825955,3.189694528954611,30.941541494251062,-0.13929759,-17.183836093333333,-2.149668381249998,False,1.1938
mp-505397,K2 Pu1 Cl6,9,Monoclinic,12,290.06968132734244,3.062183495117953,32.22996459192694,0.94642722,-5.3213298899999995,-2.200004475916665,False,0.3467
mp-1211726,K4 Rb8 Fe4 O10,26,Monoclinic,12,587.598548851854,3.457608078049167,22.599944186609772,1.41153828,-5.137336414230769,-1.455434631115384,False,0.980399999999999
mp-621964,K8 Rb4 Bi4 Se12,28,Cubic,198,1027.9188645555007,3.938597791564911,36.71138801983931,0.31712735000000003,-3.671810167857142,-1.154518416290178,True,2.1311
mp-558227,K2 Rb1 Mn2 F7,12,Tetragonal,139,201.79344346384306,3.345291072745835,16.81612028865359,0.5469959600000001,-5.9144224225,-3.000733195238506,False,2.6186
mp-23021,K2 Re1 Br6,9,Cubic,225,284.2759580536081,4.344914698633767,31.586217561512015,0.35795929,-4.06171701111111,-1.335880026333332,True,0.9700000000000001
mp-22947,K2 Re1 Cl6,9,Cubic,225,239.4994734153692,3.308061788280559,26.61105260170769,0.82268248,-12.749332895555556,-1.486913343888888,True,1.0776
mp-7824,K2 Re1 F6,9,Trigonal,164,133.31535854723708,4.713170772643979,14.812817616359675,0.70440068,-5.675931817777774,-2.765490939666662,False,1.6997
mp-27595,K8 Re4 F32,44,Orthorhombic,62,622.5261156975879,4.442758081612841,14.148320811308816,-0.41331284,-5.5107562168181765,-2.78151324836363,False,1.0873
mp-1097045,K8 Ru4 Br24,36,Orthorhombic,62,1115.3905882983754,3.9225056606254913,30.983071897177094,0.21772926,-3.66394557527777,-1.290743220222213,False,0.020200000000000003
mp-17789,K8 Ru4 O16,28,Orthorhombic,62,506.3465325038915,3.191092911075409,18.08380473228184,1.05838504,-6.189551693214286,-1.713982263857143,False,0.169599999999999
mp-1022,K2 S1,3,Cubic,225,101.87707708492104,1.79720207513612,33.95902569497368,-0.34024571000000003,-7.938075023333333,-1.2475660384375,False,2.3201
mp-7667,K4 S6,10,Orthorhombic,36,272.4065994738514,2.12611636609544,27.240659947385137,1.63117306,-8.172802736,-0.9444977121874991,False,1.2855
mp-17146,K8 S20,28,Orthorhombic,19,750.6127739044418,2.110672500110484,26.80759906801578,1.3597609,-8.158680591071429,-0.699891550580356,False,1.929899999999999
mp-27140,K4 Sb8 O22,34,Monoclinic,12,528.2887497514081,4.65972963806291,15.53790440445318,1.8640338300000001,-6.278431415000001,-1.9721775643823531,False,1.8585999999999991
mp-863757,K4 Sb2 Au2,8,Orthorhombic,63,270.97015801647814,4.864789786357896,33.87126975205977,1.86014473,-22.7013843525,-0.6194334143749991,False,1.0023
mp-560240,K8 Sb4 P4 O24,40,Orthorhombic,62,645.1678459608684,3.365788692767355,16.12919614902171,0.96758528,-6.5473599545,-2.397861930414285,True,2.6336999999999993
mp-1195538,K8 Sc4 P8 Se28,48,Monoclinic,15,1478.1569832060727,3.3154232136855892,30.794937150126515,1.05938287,-4.737411097708334,-1.079283102307663,False,1.7243
mp-8426,K2 Se1,3,Cubic,225,112.88877285139449,2.311697321907826,37.62959095046483,-0.51456796,-3.159488603333333,-1.2399382956145821,False,2.0925
mp-7670,K4 Se6,10,Orthorhombic,36,310.2867416586008,3.372345208659668,31.02867416586008,1.0493969,-3.6239855469999993,-1.073890771306249,False,0.644
mp-23036,K2 Se1 Br6,9,Cubic,225,287.7241469766528,3.6738903093366133,31.96934966407253,-0.42338219,-3.030345867777776,-1.299198075204859,False,1.6978
mp-6984,K4 Si2 As4,10,Orthorhombic,72,296.8938394839368,2.8650380037114633,29.68938394839368,2.10370136,-3.846409195000001,-0.440748686900001,False,1.0036
mp-8235,K4 Si2 P4,10,Orthorhombic,72,271.8800987056614,2.054963670686735,27.18800987056614,2.57292431,-8.363145136,-0.600256117690476,False,1.208699999999999
mp-571473,K16 Sm16 As16 Se72,120,Orthorhombic,62,3460.4912770938936,4.757871925663888,28.837427309115782,2.52107684,-4.772393419416668,-1.272169414122917,False,1.2038
mp-555268,K4 Sm4 Ir2 O14,24,Trigonal,167,360.3233377929955,6.296361835406317,15.01347240804148,1.98671427,-7.082006940416666,-2.484167529541666,True,0.2757
mp-555587,K4 Sm2 P4 S14,24,Monoclinic,5,698.7536160930132,2.4475286378776673,29.11473400387555,1.2540225600000001,-5.202225175833333,-1.303826042190475,False,2.2591
mp-10776,K2 Sn1 As2 S6,11,Trigonal,147,294.98669863093437,3.034925657373443,26.816972602812214,2.09411868,-4.5428709690909095,-0.866260626318181,False,1.0089
mp-557121,K4 Sn2 Au4 S8,18,Triclinic,2,522.2477198864116,4.572899649961282,29.013762215911754,1.4887685400000001,-4.163261848888889,-0.8995381188333321,False,1.6433
mp-643371,K2 Sn1 H12 N6,21,Trigonal,148,248.48649076549955,1.958286828787572,11.832690036452359,-0.26271824,-5.02921110952381,-0.40806944116666605,True,2.4109
mp-18115,K4 Sn4 Hg6 S16,30,Orthorhombic,41,896.5918122658569,4.348283674180082,29.88639374219523,1.21324962,-3.739496605666666,-0.784978218466667,False,1.7526000000000002
mp-8624,K4 Sn4 O6,14,Cubic,199,291.8111207988129,4.13826984345966,20.843651485629493,3.35142753,-5.331857532857141,-1.742462365642854,False,1.3022
mp-8965,K4 Sn4 S10,18,Monoclinic,15,483.4962558094525,3.269186103197366,26.86090310052514,2.14248176,-4.469461736666669,-1.027941626333334,False,1.406299999999999
mp-8966,K4 Sn4 Se10,18,Monoclinic,15,551.9691977721258,4.274421553313418,30.664955431784765,1.78939918,-4.067375112777778,-0.982770607913194,False,0.8429000000000001
mp-1195395,K4 Sn6 Sb4 S20,34,Monoclinic,14,982.7928967245504,3.374144476813362,28.90567343307501,4.15174319,-4.599645605882353,-0.8388777726176461,False,1.816599999999999
mp-1024073,K8 Sn12 O28,48,Orthorhombic,62,708.3196972652514,5.123052156596727,14.756660359692738,3.43702626,-6.163111480208333,-2.08584630975,True,1.5671
mp-574040,K4 Sn2 Br12,18,Monoclinic,14,606.5644005532896,3.7030639523604902,33.698022252960534,-0.525158999999999,-3.332492979444445,-1.544271811611111,True,1.6124
mp-571453,K4 Sn2 Cl12,18,Monoclinic,14,511.3788775240587,2.660249301784653,28.409937640225483,-0.58588062,-3.788990446666665,-1.859705102166665,True,2.6777
mp-568968,K2 Sn1 Hg1 Se4,8,Tetragonal,121,242.20797196969772,4.8905214898699185,30.275996496212215,1.36335561,-3.5204261925,-0.9497225364218751,False,1.4785
mp-1223855,K2 Sn1 Hg1 Te4,8,Tetragonal,121,288.4529742645761,5.226494115988931,36.05662178307201,2.67611198,-3.1613810475,-0.7669801835833331,False,0.622799999999999
mp-752692,K8 Sn4 O8,20,Triclinic,2,435.80195156144936,3.4887990555691992,21.79009757807247,2.02062303,-4.917651388500009,-1.684004726400009,False,1.6021
mp-17730,K8 Sn4 O12,24,Orthorhombic,62,419.3559684925444,3.8790337427148343,17.473165353856015,1.36444161,-5.47316678625,-1.9538010669999992,True,2.1547
mp-1120733,K4 Sn2 S6,12,Triclinic,2,364.2159657987095,2.67262669946739,30.35133048322579,2.90703575,-4.278650500000001,-1.1640854995,False,2.2443
mp-9693,K4 Sn2 Se6,12,Triclinic,2,407.48295678716335,3.535458766408358,33.95691306559694,0.56063359,-3.9125349899999993,-1.119194034421874,False,1.646
mp-29835,K8 Sn4 Te12,24,Orthorhombic,64,892.3487150574227,4.315019185762662,37.18119646072595,2.55681665,-3.508785627499996,-0.8917474640833291,True,0.9613
mp-28080,K4 Sn2 Te10,16,Tetragonal,140,575.2469268912392,4.8201736035499145,35.95293293070245,3.56238029,-3.542100526249999,-0.793495430354165,False,0.536899999999999
mp-569413,K2 Sr1 Nb6 Cl18,27,Trigonal,148,694.9876750916407,3.252824059877119,25.740284262653358,2.27010909,-5.54388663074074,-1.92030262424074,True,1.0688
mp-863758,K4 Sr2 Cd2 Sb4,12,Orthorhombic,26,414.94284785211465,4.175911343884969,34.57857065434289,2.68519419,-2.86356695,-0.668036915749999,True,0.31519999999999904
mp-7148,K2 Sr1 Ta2 O7,12,Tetragonal,139,178.29230150335826,5.95797116278066,14.857691791946522,1.53003698,-8.3402729825,-3.146543844513889,False,2.0748
mp-554684,K8 Sr4 V12 O36,60,Orthorhombic,62,940.6812878844887,3.2666734773964032,15.678021464741478,1.8921494600000002,-7.6633325435,-2.6140968908,True,2.214299999999999
mp-31360,K4 Ta6 Cl18,28,Monoclinic,12,729.5880084001393,4.2794053252804805,26.05671458571926,2.20238669,-5.767783277142856,-1.8748970433214271,False,1.4543
mp-15216,K4 Ta2 Ag2 S8,16,Orthorhombic,70,468.03869827828515,3.514323224917134,29.252418642392822,0.76323967,-5.4667788525,-1.276023485437499,False,2.4916
mp-8972,K4 Ta2 Cu2 Se8,16,Orthorhombic,70,487.425128783492,4.350636619417393,30.46407054896825,1.07897132,-5.2091724675,-1.182607521401041,False,2.0288
mp-1201694,K8 Tc36 O108 F44,196,Monoclinic,14,3224.2614160527587,3.298483710533118,16.450313347207953,-1.64699589,-7.160277475561225,-2.055056797795919,False,2.6599
mp-1206472,K2 Tc1 Br6,9,Cubic,225,283.354699732659,3.842123035880078,31.483855525851002,-0.15913401,-3.899067916666665,-1.40517262772222,True,1.0368
mp-27632,K2 Tc1 Cl6,9,Cubic,225,237.13934526539072,2.723326600013872,26.34881614059897,0.21847134,-9.890229431111111,-1.5662490636111102,True,1.142599999999999
mp-1091363,K2 Tc1 F6,9,Trigonal,164,131.7457771352701,3.657550871684084,14.638419681696677,0.14528115,-5.512438301111107,-2.83393911883333,False,1.7181000000000002
mp-573568,K4 Tc2 I12,18,Monoclinic,14,730.4170034386445,4.263209403229302,40.57872241325803,1.35394801,-3.389677174999999,-0.9710711660555541,False,0.7245
mp-1747,K2 Te1,3,Cubic,225,136.9551271112786,2.495220889363191,45.65170903709287,-0.14381336,-13.706588776666665,-1.222004715833333,False,2.141
mp-558216,K8 Te4 W12 O48,72,Monoclinic,14,1137.3453067371279,5.544016705051381,15.79646259357122,0.68833986,-7.904496827916666,-2.145831934092592,True,2.8707000000000003
mp-29380,K16 Te16 As8,40,Orthorhombic,62,1534.7946245636253,3.534170953441122,38.369865614090635,1.7776252000000001,-3.487735144250001,-0.8438403913166671,False,1.2765
mp-1206350,K2 Te2 Pd1,5,Orthorhombic,71,164.4284851583174,4.44164309934496,32.885697031663476,2.56793309,-18.11362217,-0.9473361494999971,False,0.21030000000000001
mp-8623,K2 Te2 Pt1,5,Orthorhombic,71,163.3031155243592,5.373826943977107,32.660623104871846,2.68098742,-23.835660958,-0.9639222794999991,False,0.7917000000000001
mp-7289,K8 Te12,20,Orthorhombic,62,764.3436104596132,4.006066661089576,38.217180522980655,2.7137540700000002,-18.5207381335,-0.863097973,False,0.5752
mp-29128,K8 Te16 O36,60,Monoclinic,14,1027.231154657508,4.73699148212836,17.1205192442918,2.35046168,-5.637257542833334,-1.679416738577777,False,2.9189
mp-22963,K4 Te2 Br12,18,Monoclinic,14,627.7611444407653,3.625058943565936,34.87561913559807,-0.5660199,-3.084988151666666,-1.39301875735185,False,2.336
mp-569149,K2 Te1 Cl6,9,Cubic,225,261.16930038231163,2.660955335198884,29.018811153590182,0.29593751,-9.61997955888889,-1.356825606944444,False,2.5557
mp-27688,K4 Te2 I12,18,Monoclinic,14,782.65583032034,4.104261957348686,43.48087946224111,0.9537742100000001,-2.622683842222219,-1.006003727907404,False,1.7449
mp-773785,K8 Te4 O16,28,Monoclinic,14,546.4367190122622,3.279456108673694,19.515597107580792,-0.6613988,-5.389119774642857,-1.789421294809523,False,2.7853
mp-29692,K8 Te4 S12,24,Monoclinic,14,776.3993970767859,2.583561251969623,32.34997487819941,0.50655784,-11.134700144583334,-0.874908573072917,False,2.3419
mp-28419,K8 Te4 Se12,24,Monoclinic,14,870.3526418537584,3.37831703068777,36.264693410573265,0.17636274,-3.591431635416666,-0.9424683401163181,False,1.7896
mp-568203,K8 Th4 P12 Se36,60,Monoclinic,14,1680.1706544986907,4.403128159872631,28.002844241644844,1.9061957600000001,-4.855524244,-1.029776139301487,False,1.7672999999999992
mp-1211474,K4 Ti2 Cu4 S8,18,Tetragonal,132,398.5077399150707,3.178635900751431,22.139318884170596,2.77683465,-5.151748867222222,-1.272850748092592,False,1.6735000000000002
mp-1223905,K2 Ti1 Te3 O12,18,Monoclinic,5,267.87813914792315,4.344510664358402,14.882118841551286,2.03804723,-6.373180356666666,-1.986309178768518,False,1.520099999999999
mp-8065,K2 Ti6 O13,21,Monoclinic,12,267.29211015758693,3.562162097742717,12.728195721789854,1.30463654,-8.774083264285716,-3.347455425690477,False,2.7535
mp-27839,K2 Ti1 Cl6,9,Cubic,225,235.94932487031517,2.384241116834958,26.21659165225724,-0.49022007,-4.540729016666666,-2.179674765314814,False,2.0826000000000002
mp-28766,K4 Ti2 S6,12,Monoclinic,15,319.84299090960377,2.307814138044572,26.653582575800314,1.535680849999999,-5.367525643333333,-1.605307282555553,True,1.1215
mp-558075,K16 U8 Mo16 O80,120,Monoclinic,14,2263.5784311677626,3.920890291074151,18.863153593064688,-0.53031831,-8.196461128166666,-2.548123813133332,False,2.3125
mp-542317,K8 U4 W8 O40,60,Orthorhombic,62,970.1693985067741,5.777663598940295,16.169489975112903,0.67701765,-8.5852104885,-2.655209157466665,False,2.0582
mp-29361,K4 U4 O14,22,Monoclinic,4,368.2281596698449,6.008962049142516,16.737643621356586,1.89857048,-8.732192773181817,-3.324803091318179,False,1.648299999999999
mp-556374,K2 U3 I4 O20,29,Triclinic,2,478.54888676470904,5.620929002581434,16.501685750507207,1.9846897000000001,-7.036163758620703,-2.167465826362081,False,1.8921000000000001
mp-11887,K2 U3 Te2 O14,21,Triclinic,2,373.48197209439826,5.65310764968826,17.784855814018965,1.97385675,-8.193767277619047,-2.874956071325395,False,1.8600999999999992
mp-558707,K8 U4 As8 O36,56,Orthorhombic,59,999.6351270819581,4.0536148917113835,17.85062726932068,2.27564871,-7.266349169642858,-2.4502032006785712,True,2.4207
mp-28776,K8 U4 Br20,32,Orthorhombic,62,1051.574013365246,4.520930970117946,32.861687917663936,3.00740428,-4.619457666562504,-1.902097400250002,True,0.105799999999999
mp-28496,K8 U4 Cl20,32,Orthorhombic,62,899.4887505093183,3.644115706338091,28.109023453416196,3.84999299,-17.5757167725,-2.233121899375001,False,0.11989999999999901
mp-3808,K2 U1 O4,7,Tetragonal,139,124.03025951364324,5.090494292722964,17.718608501949035,1.5691352200000002,-7.823658391428572,-3.059945037785713,False,1.9773
mp-18935,K4 V2 P4 O16,26,Tetragonal,100,392.6170127832533,2.699048469137142,15.100654337817435,0.885329599999999,-7.420538145384615,-2.669670406445054,True,2.74
mp-1190373,K4 V4 Co2 O14,24,Tetragonal,113,421.16313378591695,2.767875143630947,17.54846390774654,-0.2465653,-7.447522929583332,-2.264214984541665,False,2.582
mp-16787,K4 V6 O16,26,Tetragonal,100,414.06486363841395,2.8795517033620532,15.925571678400537,0.11123555,-7.760718541538462,-2.445476564961539,False,2.0466
mp-8900,K4 V2 Ag2 S8,16,Orthorhombic,70,421.48640101842085,2.878095043621239,26.342900063651303,1.06052535,-5.031729399999991,-1.188851717020823,False,1.304999999999999
mp-14634,K4 V2 Ag2 Se8,16,Orthorhombic,70,484.49727488537303,3.7895894427577863,30.281079680335814,0.88005934,-4.606428985625,-1.084775347567707,False,0.9843000000000001
mp-15147,K4 V2 Cu2 S8,16,Orthorhombic,70,409.4803583902864,2.6030074719081773,25.5925223993929,1.69183789,-5.26371410375,-1.263802796812499,False,1.2343
mp-15220,K4 V2 Cu2 Se8,16,Orthorhombic,70,457.2006529728248,3.693888575473212,28.57504081080155,1.18488955,-4.8152159225,-1.136528660484375,False,1.1253
mp-18832,K8 V4 O8 F12,32,Orthorhombic,62,502.40585439639824,2.883858828483186,15.700182949887445,-0.86437093,-6.1706188796875,-2.797603298375,True,2.9836
mp-1224276,K8 V4 O4 F16,32,Orthorhombic,33,508.4309276803335,2.888863219398797,15.888466490010423,-0.57136804,-6.005519589375,-3.0117675868125,False,2.7902
mp-19037,K4 W4 O14,22,Monoclinic,14,320.9374642914357,5.772893584880375,14.588066558701621,2.91974789,-7.99436939409091,-2.2839396722272722,False,2.4361
mp-757860,K6 W12 O39,57,Triclinic,1,862.8399975130764,5.897924397550806,15.137543816018884,0.42053747,-8.48426593263158,-2.251699962605264,False,1.9062000000000001
mp-1211879,K8 W4 S16,28,Orthorhombic,62,804.9928283657441,3.220415034886207,28.749743870205148,2.23215828,-14.783553479285715,-1.134365110535715,True,1.9435
mp-18138,K8 W4 Se16,28,Orthorhombic,62,899.5677469279668,4.266878946031491,32.12741953314167,0.67310136,-5.250695986785717,-1.078622331625001,True,1.319
mp-863763,K2 Y4 Cu4 Se9,19,Monoclinic,12,462.2671634093663,5.024157426922772,24.32985070575612,3.39469151,-5.507698185263158,-1.499322636610196,False,0.7046999999999991
mp-560785,K8 Y16 Sn8 S44,76,Tetragonal,130,2144.479112222627,3.171525001571357,28.216830423981936,2.51201039,-6.049090241052632,-1.741711062210524,True,1.7939
mp-560398,K4 Zn2 Ge4 O12,22,Orthorhombic,20,356.82183306670873,3.582244906587079,16.219174230304944,-0.32783205,-5.973886057727273,-2.114221985409091,True,2.872499999999999
mp-722979,K4 Zn2 H16 N8,30,Triclinic,2,361.52564818046847,1.907954198376904,12.050854939348948,-0.33743263,-4.709682048666667,-0.44055367896666703,True,1.98
mp-1195072,K8 Zn4 Sn8 Se24,44,Tetragonal,130,1404.5585792095703,4.042280338826182,31.9217858911266,1.35715929,-3.936648953863637,-0.9805493510056821,False,1.5684
mp-28371,K4 Zn6 O8,18,Monoclinic,15,261.7476124595242,4.293919767100468,14.541534025529122,0.6808405200000001,-4.578666056666666,-1.708242246055554,True,1.4102000000000001
mp-1147664,K4 Zn6 S8,18,Orthorhombic,72,409.549129486023,3.265404812938068,22.752729415890165,1.05649849,-9.006338018333333,-1.127634460972222,False,2.5684
mp-1232308,K4 Zn6 Se8,18,Orthorhombic,72,463.9764085179895,4.225024158114938,25.776467139888307,0.73221439,-3.328860797222221,-1.10379233209722,False,1.9383
mp-1191100,K4 Zn10 As8,22,Orthorhombic,63,495.201507716428,4.727612759250781,22.509159441655818,2.5234107100000003,-2.808036412272727,-0.33149571904545405,False,0.160499999999999
mp-8187,K4 Zn2 O4,10,Orthorhombic,72,167.76202198412008,3.4763287067969992,16.776202198412008,0.61507319,-4.261124989000003,-1.5774439759000032,True,1.9785
mp-1147773,K4 Zn2 S4,10,Orthorhombic,72,261.80290942665175,2.635211962151513,26.180290942665174,0.50957419,-8.656018894999999,-1.252593166624998,False,2.804299999999999
mp-1232317,K4 Zn2 Se4,10,Orthorhombic,72,294.935523378633,3.395284722872948,29.4935523378633,0.13143687,-3.326145926000001,-1.2232847238375,False,2.319099999999999
mp-12535,K4 Zn2 Te4,10,Orthorhombic,72,356.9169323786678,3.7108482041768953,35.69169323786678,1.20916442,-2.997599203,-1.035780234566666,True,2.0537