material_id,composition,nsites,crystal_system,space_group,volume,density,density_atomic,efermi,energy_per_atom,formation_energy_per_atom,is_gap_direct,band_gap
mp-560331,K16 Zr8 S32,56,Orthorhombic,61,1488.1217658018945,2.657364616409933,26.573602960748115,2.44619864,-5.463993586607144,-1.554868108678571,True,2.0197
mp-29602,K8 Zr4 Te12,24,Monoclinic,14,892.0961961215934,4.111591927722137,37.17067483839973,2.25044236,-19.7281609575,-1.221828839583333,False,0.373899999999999
mp-2740887,K6 Ni4 O8,18,Monoclinic,11,286.41883824584085,3.463240400472809,15.91215768032449,2.27760215,-8.737359803333334,-1.415770069027778,False,0.22160000000000002
mp-27565,K6 Ni4 O8,18,Orthorhombic,63,299.336967182846,3.313781459753919,16.629831510158112,2.56664285,-5.14540056611111,-1.284708727416665,False,1.3828
mp-1225940,K60 Ga18 As38,116,Trigonal,148,3944.039627940775,2.714740551124174,34.00034162017909,1.28414386,-3.050152853965517,-0.46521692288793104,True,0.180099999999999
mp-1225850,K60 Ga18 Sb38,116,Trigonal,148,4663.52760136815,2.9296642404026363,40.20282414972543,1.81237563,-2.900259794655172,-0.49258773525862004,True,0.286699999999999
mp-1228670,K76 Nb14 As48,138,Orthorhombic,36,4693.351102580364,2.783891550323533,34.00979059840843,1.24717662,-3.7338535878260872,-0.46161988457246306,True,0.0131
mp-14206,K3 Ag3 As2,8,Trigonal,166,221.6485665583005,4.425705732686266,27.706070819787563,1.18140604,-3.007964274999999,-0.350068366468748,True,1.2533
mp-572510,K48 Ag16 O32,96,Orthorhombic,19,2184.6303895340984,3.127503002333693,22.75656655764686,2.43343428,-3.8663344539583333,-1.177506311194443,True,1.7512999999999992
mp-28347,K6 Al4 As6,16,Monoclinic,11,448.70492569103305,2.931152546592913,28.044057855689566,2.18420034,-3.669633839375,-0.5576802861562501,True,1.1862
mp-541682,K24 Al8 As16,48,Triclinic,2,1516.913936931255,2.575740855213499,31.60237368606781,1.6257383600000002,-3.243166526249999,-0.496511515708332,True,0.45170000000000005
mp-24034,K6 Al2 H12,20,Monoclinic,14,304.6791795980204,1.6385694978914191,15.233958979901022,-0.39529445,-4.8542729025,-0.302516447875,False,2.8773
mp-9157,K6 Al2 O6,14,Monoclinic,12,241.00128116481986,2.649608727128237,17.214377226058563,0.7867435500000001,-5.397711546428573,-2.257201830250001,False,2.8977
mp-541684,K24 Al8 P16,48,Triclinic,2,1414.6545072261308,1.936546030806195,29.471968900544393,1.89005464,-7.754808937916667,-0.6229684774503971,True,0.9707999999999991
mp-18217,K12 Al4 Se12,28,Monoclinic,14,880.8290655745034,2.8742246663652553,31.45818091337512,0.41664695,-3.900137007499999,-1.3819342316116061,False,2.7325
mp-18378,K12 Al4 Te12,28,Monoclinic,14,1081.6470567963563,3.236660283519737,38.6302520284413,1.30694134,-15.56166698,-1.127586541607144,False,2.2172
mp-14018,K6 As2,8,Hexagonal,194,297.3181781186043,2.147080340091364,37.16477226482554,0.53022712,-2.3193812025,-0.30332327731249903,False,0.11180000000000001
mp-1197620,K12 As4 P12 Se36,64,Monoclinic,14,1969.9206491500606,3.357552327844034,30.780010142969697,0.90744391,-4.25508018625,-0.7692142127670191,True,1.5724
mp-541000,K12 As44,56,Orthorhombic,60,1755.0577375645348,3.562926532516817,31.340316742223838,2.01650043,-4.168791160535712,-0.25697280155357,False,1.5084
mp-680329,K48 As112,160,Orthorhombic,61,5319.436890725594,3.2052850458547892,33.246480567034965,1.98501931,-3.9539269621875,-0.34543027261250003,True,1.5521
mp-1193111,K12 As4 S12,28,Cubic,198,831.4188123397332,2.304102605804453,29.69352901213333,0.47165702,-4.082506815714287,-1.156891043821428,True,2.5958
mp-3797,K12 As4 S16,32,Orthorhombic,62,909.6493943078239,2.340082900103164,28.426543572119495,0.7603732400000001,-4.1896783090625,-1.112469562718749,True,2.1312
mp-18594,K12 As4 Se12,28,Cubic,198,930.7567330450269,3.062159966375905,33.24131189446525,0.38960727,-3.7612594353571422,-1.110978559111606,False,2.1248
mp-1197539,K12 As4 Se16,32,Orthorhombic,62,1033.27956214033,3.265902848373523,32.28998631688531,1.44266619,-3.797843742812501,-1.041859041390626,True,1.113099999999999
mp-1211803,K6 Au6 Br16,28,Monoclinic,15,891.1923367637386,5.021260681896885,31.828297741562093,0.49571988,-3.051572203214284,-1.172191671196426,True,0.813399999999999
mp-9200,K3 Au1 O1,5,Cubic,221,142.59546003697025,3.845922408760981,28.51909200739405,0.47419197,-3.202910127999999,-0.8797196933499991,False,0.5612
mp-15571,K6 Au2 Se4,12,Trigonal,167,419.57168514662686,3.73750566854895,34.964307095552236,-0.04381844,-3.405754851666666,-1.129119164406249,False,2.0524
mp-1029756,K12 B4 N8,24,Monoclinic,14,485.05171873470204,2.13785199958883,20.210488280612584,2.64854427,-4.991295662916667,-0.532952924736111,True,1.5863
mp-9664,K6 B2 P4,12,Monoclinic,15,348.7604642542188,1.809787333366164,29.0633720211849,1.100264039999999,-7.773973234166667,-0.539756795783729,False,1.6658
mp-29975,K12 B4 S12,28,Monoclinic,14,741.3842662366777,2.009540391323257,26.478009508452775,0.94355771,-4.457616237142856,-1.2449620026309511,False,2.7148
mp-558607,K6 B2 Sb8 O26,42,Triclinic,2,601.6912190711166,4.543370183686669,14.325981406455158,4.20757246,-6.448273855000001,-2.119083428138889,False,2.0928
mp-31286,K18 Bi6,24,Hexagonal,185,1092.5586505131587,2.975361818034186,45.52327710471494,0.53790796,-19.64048955625,-0.5012231678125,True,0.024699999999999
mp-865961,K3 Bi1 As6 Se12,22,Trigonal,147,674.5666397980937,4.24220255207264,30.66211999082244,1.61474535,-4.200962385909091,-0.6893343674943181,False,1.398699999999999
mp-554216,K12 Bi4 P8 S32,56,Orthorhombic,19,1503.0872964504783,2.8491243314749983,26.840844579472826,2.65175858,-4.675818559107142,-1.017106625609692,True,2.1148
mp-29524,K12 Bi4 O12,28,Cubic,217,612.5239414103859,4.058589232689066,21.875855050370923,0.49814456,-4.836489303214287,-1.6753426613214302,True,2.9552
mp-30120,K6 Bi2 O8,16,Triclinic,2,304.92591943230804,4.250628469313457,19.057869964519252,0.45764756,-5.024495348749999,-1.639996911468749,False,1.1394
mp-28980,K12 Bi4 Se12,28,Cubic,198,948.0845159863859,3.945392464256935,33.86016128522807,0.60935434,-3.6838924032142852,-1.145052701611606,False,2.0759
mp-29379,K12 Bi4 Te12,28,Cubic,198,1133.5203186460324,4.155010607017799,40.48286852307258,1.45875338,-22.788420745714287,-0.9586009623214281,False,1.2282
mp-28166,K3 Br1 O1,5,Cubic,221,139.8196942845503,2.532004578426728,27.96393885691006,1.12577295,-3.560015648000001,-1.56421230635,True,0.8913000000000001
mp-1104232,K3 Ca1 P2 O8,14,Monoclinic,12,219.16486157236983,2.631494656373625,15.654632969454989,0.34851885,-6.728833822857142,-2.7420949557882652,False,0.019699999999999003
mp-561144,K12 Ca4 V20 O60,96,Orthorhombic,67,1686.057883395773,2.568808685812808,17.5631029520393,-1.06985181,-7.734273110833334,-2.5243291744479173,False,2.7603
mp-17189,K6 Ce2 P4 O16,28,Monoclinic,11,417.7183172142527,3.556694253635383,14.918511329080454,5.18425572,-7.217453207857142,-2.949903627216836,False,0.0495
mp-21557,P8 S32 K12 Ce4,56,Monoclinic,14,1541.8633051048062,2.480812968304055,27.533273305442968,3.40846828,-5.131023645892857,-1.326103458109692,True,0.003
mp-1111145,K3 Co1 F6,10,Cubic,225,156.4393898006716,3.080548839353999,15.643938980067158,-2.29922232,-4.884315758,-2.683251744175,True,2.898399999999999
mp-28825,K12 Co4 O8,24,Orthorhombic,62,512.1416529288501,2.700572327104606,21.339235538702088,0.87614742,-4.649377514166667,-1.245469531125,False,1.6284
mp-559099,K12 Cu4 N20 O60,96,Monoclinic,14,1452.6895785392653,2.244391878853707,15.132183109784014,-0.41031617000000004,-6.340193097604167,-1.1983547793437501,False,0.873799999999999
mp-569136,K6 Cu22 Te32,60,Orthorhombic,74,1642.9714548179697,5.77691849606369,27.382857580299497,4.94027164,-3.741284430333333,-0.44867520261388705,False,0.0815
mp-556522,K6 Cu4 Bi10 S20,40,Orthorhombic,58,1025.1201631985014,5.21571330710694,25.628004079962533,3.9030706200000003,-4.45920540599999,-0.837890919337489,True,0.5758000000000001
mp-14205,K3 Cu3 As2,8,Trigonal,166,195.0745973899275,3.896740569897688,24.384324673740938,2.20192569,-3.42691037,-0.29791358959375003,False,1.2741
mp-7439,K3 Cu3 P2,8,Trigonal,166,184.7065539453757,3.325279373704374,23.088319243171963,2.49067692,-8.982202073749999,-0.407285519650297,False,1.2892000000000001
mp-10914,K12 Cu20 O16,48,Monoclinic,14,941.4375102767572,3.52077051239991,19.613281464099106,1.49010723,-4.732836808958333,-1.092671264104166,True,1.593499999999999
mp-28273,K24 Cu8 O16,48,Tetragonal,92,970.2777395941903,2.914040978998382,20.214119574878964,1.32930781,-4.186012822916667,-1.287806514875,True,1.521599999999999
mp-558415,K12 Cu4 P8 S28,52,Monoclinic,14,1378.0407354117401,2.252113277136547,26.500783373302696,1.65806879,-4.6517675607692315,-1.013861417579669,False,2.3196
mp-866661,K6 Dy2 As4 S16,28,Monoclinic,15,802.2215024498697,2.8405928473233093,28.650767944638204,1.22340008,-4.783840197857143,-1.179582604886903,False,1.6543
mp-1224251,K6 Er14 S24,44,Orthorhombic,31,1144.3269551045607,4.8550734553633035,26.007430797830924,3.47882339,-18.25877347909091,-2.260917708106058,True,1.8393000000000002
mp-581237,K12 Fe8 P12 O48,80,Monoclinic,15,1187.100794217142,2.875406525532265,14.838759927714275,0.53664451,-7.28082135275,-2.483016141533928,False,2.2618
mp-566670,K6 Fe10 P12 O48,76,Monoclinic,15,1116.721318035277,2.873874975921071,14.69370155309575,2.39503939,-7.61771187368421,-2.433813966042292,True,1.833
mp-28696,K12 Fe4 O16,32,Orthorhombic,62,535.5768043634179,2.940949493687625,16.736775136356812,0.37522829,-5.494960733125,-1.537963933343749,True,0.24329999999999902
mp-567524,K12 Ga12 As16,40,Orthorhombic,52,1066.9066940529149,3.8981741908978673,26.672667351322872,1.82064918,-3.569032703749998,-0.45314396717499805,True,0.8722000000000001
mp-13743,K6 Ga2 O6,14,Monoclinic,12,248.73995064104855,3.137842669215118,17.76713933150347,0.11546995,-4.925301336428573,-1.887288735607144,True,2.6237
mp-541686,K12 Ga4 S12,28,Monoclinic,14,780.546746661879,2.41003417989416,27.876669523638533,0.3458422,-4.012894096428573,-1.32185354025,False,2.7008
mp-541687,K12 Ga4 Se12,28,Monoclinic,14,876.9644557261856,3.2106159769808422,31.320159133078057,0.16267835,-3.685414302857143,-1.269708642325892,False,2.4441
mp-541688,K12 Ga4 Te12,28,Monoclinic,14,1070.6259753656277,3.5351463744370113,38.236641977343844,1.18636153,-3.312905009642859,-1.048316028107144,False,1.6626
mp-1211764,K12 Gd4 B8 O24,48,Orthorhombic,62,726.1645941061519,3.5870792127415783,15.128429043878164,0.82468933,-7.855734578541667,-2.812669496881944,False,2.6966
mp-978099,K6 Gd2 P4 O16,28,Monoclinic,11,391.65508623013466,3.938668857991031,13.987681651076239,1.17039239,-7.815626844642849,-2.966707809002542,False,1.2922
mp-604889,K6 Gd6 P8 S32,52,Monoclinic,15,1411.5063079890695,2.884560397640109,27.144352076712874,1.556840789999999,-6.5227353303846165,-1.388192135396977,False,1.498999999999999
mp-1196998,K6 Ge34,40,Cubic,227,963.9823079129117,4.658465674929789,24.099557697822792,2.74284482,-4.180683374,-0.0814042388375,False,0.058699999999999
mp-17112,K6 Ge8 Au2,16,Orthorhombic,59,486.4477749420352,4.129239475759041,30.4029859338772,1.91681784,-3.414514003750003,-0.269501180218753,False,0.8175999999999991
mp-14434,K6 Ge2 S6,14,Monoclinic,12,397.0291643303487,2.3934255705055403,28.359226023596335,1.0315375,-4.159961797142857,-1.241073836321428,False,2.4164
mp-14435,K6 Ge2 Se6,14,Monoclinic,12,443.55867066082385,3.195711695145406,31.682762190058845,0.53344908,-3.8310549064285713,-1.187501841254464,False,1.8278999999999992
mp-27331,K12 Ge4 Te12,28,Monoclinic,15,1072.741889362395,3.546234879745465,38.31221033437125,1.31285554,-3.467519832857141,-0.975083446678569,False,1.1611
mp-1211819,K6 Hf8 Ag4 F46,64,Monoclinic,14,930.1054776525635,5.29867762684658,14.532898088321305,-0.839556499999999,-6.3745818725,-3.470602332815104,True,0.6645
mp-28171,K3 I1 O1,5,Cubic,221,148.3913038780024,2.911695034511509,29.678260775600478,1.8514774999999992,-3.419062857999999,-1.445846300349999,True,1.0284
mp-984107,K12 I4 O20,36,Tetragonal,129,630.7621851376414,3.413906225322841,17.521171809378927,0.99495435,-4.8045666844444455,-1.509241483527778,True,1.497999999999999
mp-583615,K12 In8 As12,32,Orthorhombic,64,1009.5120748587569,3.761512388804484,31.547252339336154,2.14936574,-3.286407440625,-0.421054409072916,False,0.9935
mp-20256,K6 In2 P4,12,Orthorhombic,72,379.0357775847673,2.576531561766659,31.58631479873061,1.8231299600000002,-3.188210523333334,-0.357505529617063,False,0.7887000000000001
mp-541141,K12 Ir4 Cl24,40,Monoclinic,14,1065.7228474966562,3.254816776176255,26.643071187416403,1.03683386,-12.317275023499999,-1.584397159124999,True,1.9042000000000001
mp-16209,K12 La4 P8 S32,56,Monoclinic,14,1568.3556818766926,2.43378080453251,28.006351462083796,1.8000864600000002,-5.109514204821429,-1.376089928823979,True,2.478099999999999
mp-542079,K12 La4 P8 Se32,56,Monoclinic,14,1777.1346785961498,3.550043434590643,31.734547832074103,1.58609737,-4.558862830535714,-1.192551748734694,True,1.4776999999999991
mp-560739,K12 Li12 Te4 O24,52,Orthorhombic,62,708.2534865265742,3.392235901547296,13.620259356280274,1.48422318,-5.179189146153845,-1.9521160929551271,True,2.8097000000000003
mp-1211905,K12 Li4 Ge16,32,Orthorhombic,62,941.601004956613,2.926015554315364,29.425031404894156,1.773755,-3.223867301249999,-0.249474369385415,True,1.0603
mp-554144,K3 Mn2 F7,12,Tetragonal,139,187.06166050976793,3.197124611637336,15.588471709147328,1.17596261,-5.927709413333335,-3.001450548551007,False,0.7123
mp-1003764,K12 Mn16 O32,60,Triclinic,1,779.4353994690597,3.9629756312672573,12.990589991150994,2.33058657,-7.263995125833346,-1.955604567398289,False,0.48749999999999905
mp-540914,K12 Mn4 O12,28,Monoclinic,14,505.3422799501837,2.8946908617311813,18.047938569649418,1.09440457,-5.626610745,-1.712323962811576,True,1.6113
mp-560580,K6 Mo24 P2 O80,112,Cubic,224,1556.6347984678264,4.137973113610472,13.89852498631988,0.39779989,-8.081264589553571,-2.065624871453443,True,2.2532
mp-620069,K6 Mo4 Cl18,28,Hexagonal,176,745.2995593766051,2.799510104335166,26.617841406307324,1.82713594,-10.558080720000001,-1.588744950982144,False,0.631799999999999
mp-1196835,K12 Mo8 O16 F20,56,Orthorhombic,58,926.1973782857227,3.35740733731189,16.539238897959333,0.05835168,-6.468578090892857,-2.579541284946429,False,2.5171
mp-27643,K12 Mo4 Cl24,40,Monoclinic,14,1109.3982917843289,2.550252461066767,27.734957294608222,1.19597009,-9.90021704625,-1.7960765828749992,False,1.6993
mp-28111,K6 N2 O6,14,Tetragonal,108,264.54226948074967,2.250939504813103,18.89587639148212,1.10328007,-5.079063802857143,-1.282453813107143,False,0.2174
mp-553975,K12 Na8 In4 O16,40,Monoclinic,14,741.7593865888183,3.0632783816106732,18.543984664720462,0.81046617,-4.487870659749999,-1.625013810867528,False,2.133199999999999
mp-18447,K12 Na8 Sn4 As12,36,Orthorhombic,64,1107.8146072005302,3.038331150823555,30.772627977792506,1.6720921,-3.130323452222222,-0.452824543556513,False,0.9400000000000001
mp-568329,K12 Na8 Sn4 Bi12,36,Orthorhombic,73,1369.868862356046,4.40715625543124,38.051912843223505,2.04087967,-2.771850820277778,-0.35438131911206905,False,0.010900000000000002
mp-16847,K12 Na8 Sn4 P12,36,Orthorhombic,64,1023.2107730917475,2.433694477405732,28.42252147477076,1.9818153600000001,-3.310861882222222,-0.38491264260413105,False,1.1005
mp-1191678,K6 Na2 Mn2 Cl12,22,Trigonal,167,603.2268497384196,2.245926199115287,27.419402260837252,0.75205591,-4.307379304090909,-2.035642755096394,True,2.4629
mp-541393,K6 Na2 Re4 O18,30,Hexagonal,194,472.8749800283666,4.612063968143542,15.762499334278887,0.72765724,-7.175709697,-2.231462536541954,True,1.823099999999999
mp-628185,K6 Na2 Sn6 Se16,30,Tetragonal,125,966.4651986079944,3.876487786338696,32.21550662026648,2.10063695,-4.001818682333334,-1.01969619345862,True,1.6836000000000002
mp-559516,K12 Nb4 S16 O64,96,Orthorhombic,62,1549.4434744069622,2.548296221580618,16.14003619173919,0.23008962,-6.7745810396875,-2.223904849760416,True,2.9664
mp-581115,K6 Nb4 Ag6 S16,32,Monoclinic,15,933.9978655816353,3.140567503755644,29.187433299426104,0.82587474,-5.195808704375,-1.118783152921874,True,1.9519000000000002
mp-542545,K6 Nb4 As2 Se22,34,Monoclinic,9,1016.0095895348851,4.074784701946772,29.88263498632015,1.47897645,-4.946977444411765,-1.022161677648897,False,1.1802
mp-581419,K6 Nb4 Cu6 S16,32,Monoclinic,15,833.3484339007555,2.989974872639653,26.04213855939861,1.78053542,-5.5085976096875005,-1.196021622296875,False,1.8542
mp-1202743,K6 Nb4 Cu6 Se16,32,Monoclinic,15,900.4982812424047,4.150620415189939,28.140571288825146,1.19021243,-5.0622364165625005,-1.07088447409375,False,1.6021
mp-6168,K12 Nb8 Cu4 Se48,72,Monoclinic,14,2101.8063733131903,4.153068960937117,29.19175518490542,1.813592659999999,-4.887045086805555,-1.017774884020833,False,1.266499999999999
mp-680410,K12 Nb8 S44,64,Monoclinic,15,1811.3555535003893,2.4048710825150432,28.302430523443583,2.8728274,-5.4883653903125005,-1.168448234640624,False,1.3870999999999991
mp-28428,K12 Nb8 Se44,64,Monoclinic,14,1967.804160630277,3.9548649432241083,30.74694000984808,1.36223992,-4.947109125312499,-1.068875031408202,False,1.0744
mp-558828,K3 Nb3 B2 O12,20,Trigonal,157,270.2289590424201,3.746128869878559,13.511447952121006,0.5114422,-8.199182425500029,-2.877565431004194,False,2.3377
mp-561406,K12 Nb24 V4 O76,116,Hexagonal,189,1780.8042714653325,3.840503146315098,15.351760960908038,0.27049756,-8.652729013793103,-2.890759890577585,True,2.3407
mp-554572,K12 Nb4 P8 O36,60,Monoclinic,14,943.9080574608703,2.928346142139179,15.731800957681171,1.16524445,-7.368810431833334,-2.778276411569048,True,2.8105
mp-18383,K12 Nb4 S16,32,Orthorhombic,62,952.5171040440633,2.360180937792134,29.76615950137698,0.37205199,-5.226584893125,-1.470478333343749,True,2.4051
mp-17283,K12 Nb4 Se16,32,Orthorhombic,62,1060.7565542206808,3.293921089089185,33.148642319396274,0.31478489,-4.7827279703125,-1.347845455453125,True,1.8918
mp-559059,K6 Nd2 As4 S16,28,Monoclinic,15,829.3683958138357,2.674503186362058,29.62029985049413,1.00638468,-4.805676685714286,-1.190721099589285,False,1.6896
mp-542974,K12 Nd4 P8 S32,56,Monoclinic,14,1541.3965441691798,2.499343880057696,27.524938288735353,1.55208695,-5.067913188571429,-1.346478889181121,True,2.4763
mp-555172,K6 Nd6 P8 S32,52,Monoclinic,15,1460.357807604311,2.699320278529005,28.083803992390592,1.6003606700000002,-5.457758001730768,-1.397211899916207,False,2.115
mp-1194761,K6 Np2 H12 O16,36,Monoclinic,14,433.81851894428087,3.738447574522768,12.050514415118913,-0.00686998,-6.215013599722222,-1.97631495961111,False,1.5430000000000001
mp-1195299,K12 Np4 H8 O24,48,Orthorhombic,56,765.6904834633427,3.923641516851296,15.951885072152974,0.56464706,-6.7222062339583335,-2.3205405875416663,True,1.1955
mp-9637,K12 Np4 O8 F20,44,Tetragonal,88,792.095146283868,4.035847144697138,18.002162415542454,0.84941027,-6.527842546136363,-3.272654115727272,True,0.317899999999999
mp-7897,K6 P2,8,Hexagonal,194,279.4265572665205,1.762222660666263,34.92831965831506,0.78756816,-7.099283895,-0.335066864806547,False,0.2117
mp-1568,K12 P44,56,Orthorhombic,60,1556.0942020279085,1.954990444712359,27.78739646478408,2.10080887,-8.737015744642857,-0.374327798856292,False,1.9674
mp-866660,K6 P4 Au2 Se16,28,Monoclinic,9,844.5563844922149,3.963356570157007,30.162728017579102,1.04856222,-4.07427090392857,-0.8266830439132631,True,1.195799999999999
mp-568011,K6 P10 Ru2 Se20,38,Monoclinic,11,1069.8825977998006,3.609612507737481,28.15480520525791,2.54954356,-4.702028742894737,-0.7701869475474611,False,1.0744
mp-17989,K12 P4 S16,32,Orthorhombic,62,869.7100023506727,2.111906934700193,27.17843757345852,1.2043749400000001,-4.4105985659375,-1.240220945486606,True,2.9158
mp-31313,K12 P4 Se16,32,Orthorhombic,62,996.0761101466044,3.094826013988132,31.127378442081387,2.29850493,-3.947488213125,-1.098334637595981,True,1.6858
mp-1237009,K6 Pu2 H12 O16,36,Monoclinic,14,430.441678193551,3.8217845069431133,11.956713283154194,0.69093914,-6.235295927500001,-1.897144354055555,False,1.173099999999999
mp-28837,K12 Rh4 Cl24,40,Monoclinic,14,1057.8427249097742,2.7182789990309,26.446068122744357,0.24229213,-9.5590283625,-1.648462980124999,False,1.6737000000000002