material_id,composition,nsites,crystal_system,space_group,volume,density,density_atomic,efermi,energy_per_atom,formation_energy_per_atom,is_gap_direct,band_gap
mp-1111856,K3 Rh1 F6,10,Cubic,225,171.59917278242028,3.23391367209148,17.159917278242027,-0.21039827,-4.821429619999998,-2.597276491174997,True,2.1828
mp-14017,K6 Sb2,8,Hexagonal,194,344.29968994366044,2.305898100443326,43.037461242957555,0.77405333,-11.48855836125,-0.5482814765625,False,0.389399999999999
mp-9273,K3 Sb2 Au3,8,Trigonal,166,244.63884105001054,6.45996881931884,30.579855131251318,2.35417848,-28.20529924375,-0.5525112789062511,False,1.1046
mp-10543,K6 Sb2 O8,16,Monoclinic,13,259.4760273694275,3.8788208728378972,16.21725171058922,1.79557863,-5.29177405625,-1.877404752718749,False,1.8402
mp-1194266,K12 Sb4 S12,28,Cubic,198,855.3135285803156,2.603468961599469,30.54691173501127,0.87661427,-10.846430236428573,-1.151272409955357,False,2.6955
mp-9781,K6 Sb2 S8,16,Orthorhombic,36,472.4687515549832,2.5819305051893613,29.52929697218645,0.74054899,-10.54379373625,-1.0561557528125,True,2.1851
mp-17538,K12 Sb4 Se12,28,Cubic,198,952.3207225653646,3.3195056072262252,34.01145437733445,0.70774906,-3.727331489999999,-1.154353655540177,False,2.3079
mp-8704,K6 Sb2 Se8,16,Trigonal,161,522.712124640676,3.525553037211479,32.66950779004225,0.64042548,-3.774844048124999,-1.086499508265623,True,1.4318
mp-5626,K12 Sb4 Te12,28,Cubic,198,1148.0448661876726,3.5978188156901982,41.00160236384545,1.48571789,-3.376862196071428,-0.9550010406071421,False,1.7167
mp-7657,K6 Si2 Te6,14,Monoclinic,12,528.4115125522255,3.319625585658412,37.74367946801611,1.68595008,-15.71011245,-0.9843654023214291,False,1.7179
mp-560964,K6 Sm2 As4 S16,28,Monoclinic,15,817.3821372077731,2.738580489338498,29.192219185991895,1.13461522,-4.799865286428571,-1.188449792982142,False,1.6795
mp-1211845,K6 Sn4 P10 S36,56,Monoclinic,15,1497.7534941759095,2.409738315743884,26.7455981102841,1.8113109600000001,-4.83629122,-0.8012521942844371,False,1.318299999999999
mp-18500,K6 Sn8 Au2,16,Orthorhombic,59,582.7874196630966,4.496781408025036,36.424213728943535,2.80118587,-3.174364094999998,-0.336079271468747,False,0.39720000000000005
mp-541875,K12 Sn4 Se12,28,Monoclinic,14,947.2648952462157,3.315836380703758,33.83088911593627,0.79953219,-3.750445910357143,-1.194529416611607,False,1.627599999999999
mp-540619,K12 Sn4 Te12,28,Monoclinic,14,1147.3715636443833,3.582273584643188,40.97755584444226,1.50078299,-3.407279059285711,-1.00247924453571,False,1.2441
mp-573202,K6 Ta4 Ag6 S16,32,Monoclinic,15,940.786556810464,3.739497254380773,29.399579900327,0.90260405,-5.450250775,-1.15252241071354,True,2.2901
mp-582161,K6 Ta4 Ag6 Se16,32,Monoclinic,15,1022.4983644290323,4.659180478261817,31.95307388840726,0.5195138,-5.018232947187499,-1.041728627822915,True,2.076
mp-1211748,K6 Ta4 As2 S22,34,Monoclinic,9,895.3075652696951,3.363809600858748,26.33257544910868,3.63363082,-5.697338194411764,-1.149100428024509,False,1.8918
mp-683905,K6 Ta4 As2 Se22,34,Monoclinic,9,1006.9052406097265,4.692403557791735,29.614860017933132,1.51951114,-5.156986675588236,-1.024450614393995,False,1.208699999999999
mp-1197797,K6 Ta4 Cu6 S16,32,Monoclinic,15,816.1702956181317,3.769404859454156,25.505321738066616,3.92236992,-5.756155859687501,-1.222877059463542,False,2.313
mp-1200105,K6 Ta4 Cu6 Se16,32,Monoclinic,15,900.0597475952162,4.802361134852518,28.126867112350507,1.2214819,-5.290405885312502,-1.078351130010419,False,1.9869999999999992
mp-558967,K12 Ta8 S44,64,Monoclinic,14,1638.0326879170475,3.3733437881811392,25.594260748703867,1.798950759999999,-5.731578874375,-1.19095890586979,True,1.792
mp-9870,K3 Ta3 B2 O12,20,Hexagonal,189,270.0829113634813,5.372059817918613,13.504145568174064,0.83911712,-8.6421069185,-3.055646548604166,False,2.6703
mp-16855,K6 Ta6 Si4 O26,42,Hexagonal,189,579.2207750551319,5.299668847168907,13.790970834645996,1.30995089,-8.591515563809525,-3.154895519940477,True,2.9687
mp-18148,K12 Ta4 S16,32,Orthorhombic,62,948.6526164577024,2.986233383714418,29.6453942643032,0.43989265,-5.489412502812499,-1.5126031301979141,True,2.8164
mp-1211873,K6 Ti4 P10 S36,56,Monoclinic,15,1452.843689690634,2.160345072457682,25.943637315904176,1.6735526200000002,-5.330110987678571,-1.017506236129675,False,1.1872999999999991
mp-1205449,K12 Ti4 Cl24,40,Monoclinic,14,1094.8913482446665,2.292407689361638,27.37228370611666,2.10685887,-4.423289103499998,-2.185203305008332,False,0.061699999999999006
mp-558320,K6 U6 Si4 O26,42,Hexagonal,190,684.8361867191019,5.3127887360684465,16.30562349331195,4.24922672,-8.696232646904763,-3.341829393416667,False,0.48359999999999903
mp-6785,K12 U4 O8 F20,44,Tetragonal,88,749.1755063234035,4.276179731481157,17.026716052804627,-1.03383156,-6.511691396818182,-3.407082027431817,False,2.713899999999999
mp-1181810,K12 V8 S16 O72,108,Monoclinic,4,1732.836655350177,2.435662981316877,16.04478384583497,-0.16314604,-6.863218359166666,-2.152897704787036,False,1.416499999999999
mp-556255,K12 V12 As8 O56,88,Orthorhombic,62,1371.8603600387594,3.117842419970319,15.58932227316772,0.56930662,-7.138711205340908,-2.172460000193181,False,2.9011
mp-560736,K6 V6 Bi4 O24,40,Monoclinic,15,668.9541318781274,4.36919522077518,16.723853296953187,0.8756372800000001,-7.160705173249999,-2.270633770337499,True,2.9426
mp-18761,K6 V6 O16,28,Trigonal,164,406.2479770009577,3.25458775777374,14.508856321462774,0.93291377,-7.445385196785716,-2.428991238339287,True,1.8564
mp-27704,K3 V5 O14,22,Trigonal,157,326.5630860734463,3.030567025682187,14.843776639702105,-0.70484406,-7.770240438181791,-2.402736184170427,False,2.2837
mp-3529,K12 V4 S16,32,Orthorhombic,62,891.8023619382668,2.208309268148548,27.868823810570838,0.52712071,-5.043938453124999,-1.415006764593748,True,1.582999999999999
mp-1147776,K3 V1 Se4,8,Tetragonal,121,318.639422277935,2.522687769368176,39.829927784741884,-0.46260413,-4.48847244125,-1.180764797640624,False,1.0092
mp-1224236,K6 W4 O8 F12,30,Monoclinic,15,501.185824693983,4.393084452103004,16.7061941564661,1.17492836,-6.712104991000001,-2.673083131116668,False,1.3463
mp-1029938,K12 W8 N20,40,Tetragonal,80,812.9746941508988,4.534523089694576,20.32436735377247,0.70760162,-7.760013021000001,-0.659837185674999,False,2.1512000000000002
mp-555403,K3 W1 F6,10,Cubic,225,184.0723865457111,3.744895271921797,18.40723865457111,-0.21383477,-5.628710441999997,-2.8451750771749973,False,2.8446
mp-1211761,K6 Zr12 Be2 Cl30,50,Monoclinic,15,1379.284496848056,2.902505344495895,27.58568993696112,2.4459643,-5.5215931558,-2.07567844327,False,0.9268999999999991
mp-30280,K16 Ti12 Te36,64,Monoclinic,14,2245.278711001751,4.284751182384461,35.08247985940236,3.55784798,-4.60475476171875,-1.073398012906249,False,0.12109999999999901
mp-640333,K49 Tl108,157,Cubic,200,5620.36125405057,7.087627241190868,35.798479325162866,3.66360888,-2.089692545605095,-0.105258755702234,True,0.04990000000000001
mp-1204061,K16 As8 Se20,44,Monoclinic,14,1449.1105832894607,3.213276730520143,32.93433143839683,1.42341769,-3.870909648636366,-1.021338617338071,False,1.1592
mp-29341,K8 Au12 S10,30,Hexagonal,190,806.318028622085,6.1721230375750125,26.877267620736166,1.04919167,-25.266204926,-0.7490174556041661,False,1.5841999999999992
mp-558121,K8 Ba2 V4 S16,30,Orthorhombic,72,850.8511937093058,2.545394677335719,28.361706456976858,0.92088738,-5.378883441666667,-1.530940607599999,False,1.5514000000000001
mp-1224063,K8 Ba4 Sn2 As8,22,Monoclinic,9,794.8119067704818,3.5493536789218343,36.12781394411281,2.11530942,-3.488213745454545,-0.665169131272727,True,0.49859999999999904
mp-1224198,K8 Ba4 Sn2 Bi8,22,Monoclinic,8,966.1255143957648,4.763301966201535,43.9147961088984,2.08916796,-3.078760945454545,-0.539384775818182,True,0.098899999999999
mp-1224114,K8 Ba4 Sn2 P8,22,Monoclinic,9,741.3015945878832,3.018004772345854,33.69552702672196,2.67392591,-3.685825965454545,-0.591744626597401,True,0.7994999999999991
mp-1224100,K8 Ba4 Sn2 Sb8,22,Monoclinic,9,924.8411550439695,3.7231090881971873,42.03823432018043,2.65334797,-3.32384248,-0.69756924490909,True,0.39219999999999905
mp-29584,K4 Be1 As2,7,Trigonal,166,240.85872224973656,2.1734009929624882,34.40838889281951,0.36027274,-2.9087857371428543,-0.39376619128571105,False,0.8851000000000001
mp-9872,K4 Be1 P2,7,Trigonal,166,225.73558015523977,1.672436317121159,32.24794002217711,0.63933883,-3.088014648571428,-0.36003767618367205,False,1.136099999999999
mp-28627,K4 Br2 O1,7,Tetragonal,139,218.1688285305985,2.528464208032325,31.166975504371212,0.94492535,-3.520278752857142,-1.6992311862857141,True,0.9912000000000001
mp-16137,K4 Ca1 U3 O12,20,Cubic,229,326.5294277134686,5.606932805088277,16.32647138567343,2.07392303,-8.262693235499999,-3.2736511924499982,False,2.1025
mp-29585,K4 Cd1 As2,7,Trigonal,166,269.601346866194,2.578549294768702,38.514478123741995,0.26149313,-2.52097186142857,-0.403009840571427,False,0.6091000000000001
mp-28302,K4 Cd1 P2,7,Trigonal,166,252.72082977316995,2.173252436454326,36.102975681881425,0.51275325,-9.340752755714286,-0.45758189013605205,False,0.8246
mp-1211822,K8 Co2 Mo6 O24,40,Triclinic,2,743.510446278857,3.105015661311765,18.587761156971425,-0.45687527,-7.272627463250001,-2.094058563200001,False,2.2285
mp-1228096,K48 Cu48 Sn84,180,Tetragonal,111,5634.706449763401,4.390583922002348,31.303924720907784,3.78318376,-3.463465505277777,-0.19751160154444403,True,0.7236
mp-669560,K8 Eu2 P4 S16,30,Monoclinic,12,807.7298984107155,2.577264860842136,26.92432994702385,4.25323711,-5.244185401,-1.327424441219047,True,0.684299999999999
mp-553960,K8 Fe4 O10,22,Monoclinic,14,368.1210813258541,3.140275304680557,16.73277642390246,0.91052774,-5.881509362727272,-1.6810251503636362,False,0.7339000000000001
mp-1195305,K8 Ge2 P8 S24,42,Monoclinic,15,1159.159841256057,2.113588345554911,27.599043839429932,3.201978839999999,-4.773468316428572,-0.9415294755986381,True,2.1265
mp-1195433,K16 Ge4 P16 Se48,84,Orthorhombic,29,2600.860148794277,3.321124545503324,30.962620818979488,1.1160040900000001,-4.259429073333333,-0.7946034266998291,False,1.3986
mp-14411,K8 Ge2 O8,18,Triclinic,2,330.35511116971674,2.945854776662261,18.35306173165093,0.25982805000000003,-5.169257450277779,-1.953662920722222,False,2.7733
mp-556627,K32 Ge8 S32,72,Cubic,218,2093.163276039361,2.267570136059927,29.071712167213345,0.27994235,-4.129257309722224,-1.273485641277778,False,2.7142
mp-568847,K32 Ge8 Se32,72,Cubic,218,2361.605226743571,3.064977074736457,32.80007259366071,0.02054073,-3.783732412916666,-1.213493228847221,False,1.9993
mp-1211649,K8 Hf2 O8,18,Triclinic,2,363.5256951145734,3.644073363825928,20.195871950809632,-0.37344733,-6.219351077222222,-2.411071972666666,False,2.8827
mp-29484,K4 Hg1 As2,7,Trigonal,166,267.1652035142579,3.150129680489338,38.16645764489398,0.41713996000000003,-2.448273284285715,-0.423216713785715,False,0.6976000000000001
mp-8753,K4 Hg1 P2,7,Trigonal,166,251.29393568555506,2.7682754520248043,35.89913366936501,0.6951581,-13.540430602857143,-0.47685704692176906,False,0.9356000000000001
mp-768368,K4 I2 O1,7,Tetragonal,139,243.84571595017917,2.902344643035187,34.83510227859703,1.76651458,-3.3139624142857143,-1.525181681999999,True,1.017
mp-27764,K8 I4 O18,30,Hexagonal,194,510.13145754032155,3.60795369017063,17.00438191801072,0.68832735,-4.893856679666666,-1.4201798019333332,True,1.9183000000000001
mp-8429,K4 Ir1 O4,9,Monoclinic,12,170.9102873044192,4.008836342680254,18.990031922713243,1.75540016,-5.210229739999996,-1.526256729888885,False,0.428199999999999
mp-558483,K32 Li8 I8 O48,96,Orthorhombic,61,1565.6697092217182,3.277107138745373,16.309059471059566,2.11480786,-4.786058620416667,-1.6488769201944442,True,2.312
mp-561377,K8 Mn6 F24,38,Tetragonal,141,560.6932656987487,3.252931585361219,14.755085939440756,-0.2237603,-5.872883053947357,-2.979317092515415,False,0.84
mp-29637,K8 Mn2 Br12,22,Trigonal,167,721.3252690145288,3.180329648920842,32.78751222793313,-0.01418667,-3.924025624545454,-1.786828043357366,False,2.3071
mp-1211757,K16 Mn4 O16,36,Triclinic,2,653.8655216236589,2.796870537838209,18.162931156212746,1.20898015,-5.417560688055556,-1.6976342210478932,False,1.4906000000000001
mp-557872,K16 Mo4 S12 O56,88,Orthorhombic,62,1469.4868685001638,2.5878189582526723,16.69871441477459,-0.56485844,-6.557508615568182,-2.145796716772727,False,2.7304
mp-557698,K8 Na4 Te2 O12,26,Monoclinic,14,420.2326156262286,3.366413597815373,16.1627929087011,1.59580801,-4.816829555384616,-1.7368301421865602,True,2.193699999999999
mp-560666,K32 Nb16 Se88 O8,144,Orthorhombic,61,4398.439927040416,3.705116977150238,30.544721715558442,1.6380488400000002,-5.042932925694445,-1.257873135126736,True,1.361
mp-560692,K16 Nb24 O68,108,Orthorhombic,33,1767.044971879869,3.705609702472035,16.361527517406195,0.68290958,-8.450669009166667,-2.9229413715370383,False,2.6581
mp-31280,K8 P42 I2,52,Orthorhombic,63,1405.4944102560933,2.206373523579104,27.028738658771026,2.46115728,-4.918384036923078,-0.311674977749999,False,1.2638
mp-863747,K4 P2 Pd1 S8,15,Triclinic,2,408.09731780233926,2.365218561252693,27.206487853489286,1.37635807,-4.6792953273333335,-1.103083041219046,False,1.7116
mp-21949,K32 Pb8 O24,64,Orthorhombic,61,1400.3015493613402,3.904665245786845,21.87971170877094,2.07886055,-4.352797768593749,-1.4675466465937481,True,2.4381
mp-22328,K8 Pb2 O8,18,Triclinic,2,375.8146254348973,3.778624778623718,20.87859030193874,0.12769867000000001,-4.690476961111106,-1.576035852111104,False,1.7002000000000002
mp-556254,K16 Pt8 S20 O80,124,Triclinic,2,1952.456291708766,3.493373414451766,15.745615255715855,0.42606058,-6.278658541935484,-1.881279075209677,False,1.705099999999999
mp-17522,K8 Rb4 Co4 O10,26,Tetragonal,136,524.4108496246805,3.326026338289419,20.169648062487713,1.45463318,-4.896069117692308,-1.396593309923077,False,1.0943
mp-560515,K4 Ru2 Cl10 O1,17,Tetragonal,139,463.3938403697714,2.612544284859128,27.25846119822185,0.27385124,-4.431670815882352,-1.6959253467058821,False,0.5983
mp-757850,K16 Sb8 O20,44,Orthorhombic,62,909.0352397062592,3.506617128802745,20.65989181150589,1.31944,-5.264960452272723,-1.853752598090904,False,2.5575
mp-18700,K16 Si4 O16,36,Monoclinic,14,631.6739469722597,2.61276948496558,17.546498527007216,0.6286000700000001,-5.618083157499999,-2.313345275166666,False,2.9391
mp-569427,K16 Sn4 Te8 Se8,36,Orthorhombic,62,1414.850197719903,3.230932891643724,39.301394381108416,1.5325537,-3.560565598333333,-1.13684498855787,False,1.78
mp-1224491,K8 Sn42 Hg4,54,Orthorhombic,40,1859.0258020788694,5.449570974154858,34.42640374220129,4.2330384500000005,-3.448137677037035,-0.13903279107407102,False,0.194199999999999
mp-4971,K8 Sn6 Se16,30,Orthorhombic,68,963.8012075992518,3.942709552027766,32.126706919975064,1.145953749999999,-4.006089192,-1.037990106849999,True,1.5030000000000001
mp-570900,K16 Sn36,52,Monoclinic,14,2040.8299471078512,3.986222084985664,39.24672975207406,3.01110437,-3.340371830769231,-0.21640063184615202,False,1.2502
mp-14988,K32 Sn8 O24,64,Orthorhombic,61,1372.7948845084304,3.126599629574062,21.449920070444225,1.80321576,-4.50387887296875,-1.581512152843749,True,2.302499999999999
mp-7258,K8 Sn2 O8,18,Triclinic,2,362.16307808486266,3.109594323601198,20.120171004714592,0.32730076,-4.971190571111112,-1.823757819333333,False,2.3423
mp-18132,K16 Sn4 Se16,36,Orthorhombic,62,1272.2052469898501,3.085301753198777,35.33903463860695,0.35300349000000003,-3.7312495305555533,-1.2291721242638871,True,1.9882
mp-570311,K24 Sr12 Sn6 As24,66,Hexagonal,185,2251.782951396441,3.318579486892387,34.11792350600668,1.75138514,-3.44785913030303,-0.6660048524848481,True,0.5375999999999991
mp-22634,K4 Sr1 U3 O12,20,Cubic,229,337.8954546431002,5.651966849908742,16.894772732155012,1.9729372,-8.229728385,-3.2563449314499993,False,2.0683
mp-18664,K8 Ta4 S22,34,Triclinic,2,942.8679924247474,3.067950369221467,27.731411541904336,1.292844109999999,-5.596042066470582,-1.255966230068621,False,1.7377999999999991
mp-1212432,K16 Te32 O92,140,Orthorhombic,62,2203.1274520033267,4.658524419497223,15.736624657166619,4.14442579,-5.729001469000001,-1.629714921780952,True,1.2989
mp-541735,K8 Ti6 S28,42,Monoclinic,15,1018.9954711277295,2.440805119309383,24.261796931612608,2.22338783,-5.428025662619047,-1.3256928585238081,True,1.2102
mp-559639,K8 U2 P4 O20,34,Tetragonal,137,584.8274304254637,3.5001637756421493,17.200806777219523,0.60249176,-7.38892838617647,-2.910843327252099,False,1.7849
mp-556212,K4 U5 Te2 O21,32,Triclinic,2,544.306433204953,5.911501528582456,17.00957603765478,2.13763529,-8.379078455,-3.029818397729165,False,1.7690000000000001
mp-6194,K8 U2 C6 O22,38,Monoclinic,15,607.9894281395223,3.312656114211597,15.999721793145323,-0.16538717,-7.617547795526314,-2.4633132463947343,False,2.0892
mp-8794,K8 U2 O10,20,Triclinic,2,358.86700687653934,4.390436852656259,17.943350343826967,1.2054403,-6.685354639500001,-2.6296852469000003,False,2.1712
mp-653182,K32 U8 S24 O112,176,Orthorhombic,62,2980.5452665741223,3.185016362194866,16.934916287352966,0.81110359,-6.892691561193181,-2.460717848761362,True,1.8491
mp-1196076,K8 V4 S8 O38,58,Triclinic,2,947.2649465766893,2.42095606092043,16.33215425132223,1.2397295,-6.772922155517241,-2.17781910737931,False,2.0392
mp-556552,K16 V4 P8 S36,64,Orthorhombic,33,1770.2799550954614,2.093138583558643,27.660624298366585,1.963708099999999,-5.02927539109375,-1.173927383642856,True,1.2866
mp-1224111,K8 Zn4 Sn42,54,Orthorhombic,40,1798.240936432249,5.13446198332256,33.30075808207869,4.34639824,-3.52708147185185,-0.147600913851849,False,0.420799999999999
mp-571461,K4 Zn1 As2,7,Trigonal,166,255.47467790740274,2.415627688337331,36.49638255820039,0.36422784,-2.601723578571426,-0.440942497714283,False,0.725
mp-1103566,K8 Zn2 Bi4,14,Orthorhombic,20,578.3649937154305,3.673636774040022,41.31178526538789,0.85714473,-21.900220770714288,-0.473334222142861,False,0.329099999999999
mp-28382,K16 Zn4 O12,32,Triclinic,2,614.5834668899363,2.915887774537482,19.20573334031051,0.38147246,-4.0660578928125,-1.487419703312499,False,1.694599999999999
mp-11719,K4 Zn1 P2,7,Trigonal,166,239.2412771243501,1.969465752325274,34.17732530347858,0.56771953,-7.797473545714285,-0.513500549421768,False,0.9455
mp-627575,K4 Zr6 C1 Br18,29,Triclinic,2,899.0252751673701,3.978569115888239,31.00087155749552,2.08463935,-5.125414201034481,-1.866607794362067,False,1.174999999999999
mp-1211812,K4 Zr6 Fe1 Br18,29,Triclinic,2,1009.1101703336067,3.6166742433924153,34.79690242529678,0.69672904,-5.041179956206896,-1.808533697206896,True,1.3841
mp-1211624,K8 Zr2 O8,18,Triclinic,2,367.87524741444423,2.81317404618851,20.437513745246903,-0.45226097,-5.998470294444443,-2.34680101211111,False,2.9118
mp-646920,K20 As12 Pb12,44,Orthorhombic,62,1585.3010725952581,4.365210161880777,36.02956983171041,2.06405615,-3.147839511136365,-0.347370654659092,False,0.843
mp-570836,K20 Ag8 As12 Se36,76,Orthorhombic,62,2361.219653196758,3.788103666990278,31.068679647325762,0.76273128,-3.836635013157895,-0.846303704377741,False,0.9519999999999991
mp-8683,K10 As4 Au2,16,Hexagonal,194,547.669537916831,3.288524851926335,34.22934611980194,1.12144185,-2.70842918125,-0.42455722140625,False,0.33939999999999904
mp-558332,K10 Au2 I4 O4,20,Orthorhombic,55,586.8015971320857,3.838731451612027,29.340079856604284,1.76632466,-3.5562704270000003,-1.368802641624999,True,1.8820000000000001
mp-1223953,K10 Ba2 Nb2 As8,22,Monoclinic,9,781.0380477082716,3.084545684622616,35.50172944128507,1.07413352,-3.915730556818182,-0.6104924910227281,False,1.1094
mp-1223894,K10 Ba2 Ta2 P8,22,Monoclinic,9,726.435660564538,2.9152250362683603,33.01980275293354,2.6792538,-4.327601181363637,-0.590815254286795,False,1.267599999999999
mp-14623,K10 Cu2 As4,16,Hexagonal,194,533.8476737442388,2.543655837878724,33.365479609014926,1.222549949999999,-2.713298413125,-0.32626086953125005,False,0.252499999999999
mp-12040,K40 Fe8 O32,80,Orthorhombic,61,1611.0386908788805,2.600183819523264,20.137983635986007,0.86927031,-4.9395224209999995,-1.5476510366249991,True,2.298899999999999
mp-29377,K40 Ga8 Se32,80,Orthorhombic,61,2653.2220231062893,2.909258821677062,33.16527528882862,1.91817633,-3.5369911953749993,-1.270132140687499,True,1.8932