material_id,composition,nsites,crystal_system,space_group,volume,density,density_atomic,efermi,energy_per_atom,formation_energy_per_atom,is_gap_direct,band_gap
mp-555885,Sr2 V8 Ag4 O24,38,Tetragonal,125,586.489916435638,3.9588339683970393,15.433945169358893,0.2617136,-7.637604847368421,-2.211843805964912,False,2.0861
mp-558871,Sr4 V4 Cl4 O12,24,Orthorhombic,62,387.2608745550077,3.807880277654851,16.13586977312532,1.09243122,-7.31550563375,-2.737379994583333,True,2.189
mp-30297,Sr8 V8 F40,56,Monoclinic,14,748.5023858967381,4.145074161602383,13.366114033870323,0.498224499999999,-10.085216605,-3.675877097857142,False,2.3771
mp-17502,Sr4 V4 P4 O24,36,Monoclinic,14,477.00970320817055,3.697414918017325,13.250269533560292,1.2115628,-7.972181667222222,-2.874451254404762,False,2.4421
mp-1080135,Sr2 Zn2 As2 F2,8,Tetragonal,129,158.31411441929237,5.180441033646168,19.789264302411546,3.29413222,-4.38779182,-2.003755168125,True,0.6936
mp-5637,Sr4 Zn4 O8,16,Orthorhombic,62,220.7972612182532,5.566117779030704,13.799828826140825,1.689355229999999,-5.64680544375,-2.43478201625,True,2.0793
mp-1029275,Sr2 Zr2 N4,8,Tetragonal,129,136.4617568377772,5.034301211930637,17.05771960472215,3.0463492,-15.6284600325,-1.590221453124999,True,1.227199999999999
mp-558760,Sr4 Zr4 S12,20,Orthorhombic,62,461.5351916601778,3.9582074137901833,23.07675958300889,3.75582708,-6.6146691194999985,-2.083627634999996,True,0.551199999999999
mp-556442,Tc8 O20 F16,44,Monoclinic,14,633.3197051388013,3.691621523146977,14.393629662245484,-2.36463992,-6.897381211818183,-2.06860917409091,False,1.883
mp-27485,Tc8 O28,36,Orthorhombic,61,551.7048267620728,3.708062960045716,15.325134076724245,-2.22494907,-7.950056886388888,-1.799278561388888,True,2.6664
mp-1204799,Tc24 Te60,84,Orthorhombic,61,2516.8593957719663,6.602941350816123,29.96261185442817,5.52434057,-5.778171653214286,-0.572770602261904,False,0.525999999999999
mp-1202969,Tc12 Se16 I4,32,Monoclinic,14,850.4249492166495,5.754266620062891,26.575779663020295,3.88841946,-6.409953340625,-0.586256420546875,True,0.9837000000000001
mp-7206,Tc2 Ag2 O8,12,Tetragonal,88,161.04572529180086,5.565161109707231,13.420477107650072,0.49529364000000003,-7.025207255000005,-1.525970481111115,False,1.6034000000000002
mp-568753,Tc4 Br12,16,Orthorhombic,59,467.51005210251185,4.798048441847449,29.21937825640699,1.03802316,-4.606608215625,-0.788738578124999,False,0.134
mp-570480,Tc8 Br32,40,Orthorhombic,61,1232.1373855403494,4.502534804805766,30.803434638508737,0.05652514,-4.0958431505,-0.7141581335,True,0.6761
mp-1190915,Tc6 Cl18,24,Trigonal,166,648.5192809230168,3.1395776171372622,27.0216367051257,0.72941364,-11.951940243333333,-0.8464455577083331,False,0.6643
mp-27780,Tc8 Cl32,40,Orthorhombic,61,1046.3788891517179,3.04453538784451,26.159472228792946,-0.12666412,-11.000679877,-0.885796349,True,0.8658
mp-1203061,Tc8 F32,40,Orthorhombic,61,563.4330574390455,4.102325024470623,14.085826435976136,-1.01040966,-9.96296262,-2.269207849999999,False,1.3061
mp-28804,Tc8 O16 F24,48,Triclinic,2,694.959151840877,3.574435790517624,14.478315663351603,-3.00803853,-6.494717819791667,-2.161698139791667,False,2.5259
mp-27477,Tc6 O6 F24,36,Hexagonal,176,545.6432731117617,3.469198676302346,15.156757586437825,-1.85211176,-6.145098378888888,-2.317763470555554,False,0.9928999999999991
mp-28029,Tc4 P12,16,Orthorhombic,62,245.8592485153416,5.157947174457891,15.36620303220885,8.37318886,-13.753725229375,-0.511002482857142,False,0.45060000000000106
mp-28026,Tc8 P32,40,Orthorhombic,61,626.9163642420667,4.701940059702244,15.672909106051668,8.8673474,-12.87087222275,-0.476278763130952,True,0.8481000000000001
mp-9481,Tc4 S8,12,Triclinic,2,229.4155268124772,4.694071105098641,19.117960567706433,3.776186189999999,-14.736922925833333,-0.7253695210416661,False,1.1885
mp-561392,Tc4 S4 O24 F4,36,Monoclinic,14,560.9147614375325,2.9019124105346012,15.580965595487015,-1.46611883,-6.9256934605555545,-1.8034026919444441,False,2.721
mp-555059,Tc4 Sb4 O8 F32,48,Monoclinic,14,785.9627455386216,3.412050010252496,16.37422386538795,-3.0181439,-5.710072499374999,-2.402040733124999,False,2.8238000000000003
mp-27648,Te16 Br8,24,Orthorhombic,62,843.7857616637069,5.275777892025651,35.15774006932112,2.875582419999999,-2.987118317083334,-0.345932209861111,False,0.6562999999999991
mp-27655,Te16 I8,24,Orthorhombic,62,947.9843576867668,5.354513667341664,39.49934823694861,3.2545321400000002,-2.7884342824999973,-0.18489281527777301,True,0.6558
mp-602,Te4 Mo2,6,Hexagonal,194,161.280150965677,7.23066892428707,26.880025160946165,6.39169599,-25.942847786666665,-0.30737176666666705,False,0.8632999999999991
mp-645663,Te4 Mo6 Se14 Br20,44,Triclinic,2,1524.9333162511825,4.126549245244622,34.65757536934506,0.75224681,-4.504680882500001,-0.8835714365790721,False,1.486899999999999
mp-19453,Te8 Mo4 O28,40,Monoclinic,14,592.0689474498452,5.195713048985342,14.80172368624613,2.17034825,-6.8445570675,-1.667758174333332,False,2.8614
mp-12177,Te4 O10,14,Monoclinic,4,196.85389011371586,5.655033925776998,14.060992150979704,3.24807347,-5.850213361428561,-1.417868102619037,False,1.6822
mp-267,Te4 Ru2,6,Orthorhombic,58,138.68892091453327,8.53132679029429,23.11482015242221,8.08830357,-25.825780068333334,-0.406118763333338,False,0.2847
mp-638749,Te6 Pd8 Br8,22,Triclinic,2,628.8265036302,5.957915158031608,28.583022892281818,2.112582,-4.033522302272726,-0.697410387727271,False,0.7702
mp-484,Te6 As4,10,Monoclinic,12,306.5208834463345,5.771057633752973,30.652088344633448,4.8440715,-21.134855715,-0.001508734,False,0.43260000000000004
mp-27628,Te12 Cl8,20,Monoclinic,14,653.013929905466,4.614888003138834,32.650696495273294,2.7557302200000002,-18.0442672905,-0.33295714550000005,False,1.3552
mp-2767093,Te6 Mo2 Cl32,40,Monoclinic,4,1230.0246745723566,2.824177389447363,30.750616864308917,1.41132043,-10.770723648499999,-0.732589912,False,0.4888
mp-1217418,Te8 Mo4 Ru2,14,Triclinic,1,363.54950316332327,7.338720298312815,25.96782165452309,6.56003803,-25.943574837857142,-0.33823320714285704,False,0.2499
mp-979264,Te12 Rh2 Cl6,20,Trigonal,167,606.4810019040381,5.338338981136342,30.324050095201905,3.95555066,-19.9390930135,-0.42940389524999806,False,1.0896
mp-650674,Te16 As16 Se64 F96,192,Orthorhombic,60,4297.68514112273,3.909249550843284,22.383776776680886,1.08201193,-4.439911369947917,-1.666562321076388,True,1.4762
mp-1095634,Te4 As4 Ru4,12,Monoclinic,14,239.2550926838257,8.428254653835934,19.93792439031881,7.07139654,-22.331843598333332,-0.48208006749999704,False,0.8250000000000001
mp-1208424,Te8 Br32,40,Monoclinic,15,1473.875434098416,4.0308407184375294,36.8468858524604,-0.77730563,-2.750892625749998,-0.812674219083331,False,2.5242
mp-554523,Te4 Br4 O12 F20,40,Monoclinic,14,701.4171832783072,3.319048076724462,17.53542958195768,-1.97532321,-4.4808951112500015,-1.561555379416667,False,2.7668
mp-740696,Te2 H36 Br12 O16,66,Monoclinic,14,923.8064149102125,2.707612988084375,13.997066892578978,-0.46046594,-4.5806505600000005,-1.136357558762626,False,2.1486
mp-1195796,Te8 H8 O24,40,Orthorhombic,33,460.96846686936004,5.089482963780082,11.524211671734001,2.86555341,-5.660514848,-1.384043778583333,False,2.2733
mp-569766,Te4 I4,8,Monoclinic,12,330.19365187694956,5.119597092881965,41.274206484618695,2.81203841,-2.605045511250001,-0.271386257083333,False,0.7871
mp-570884,Te16 I64,80,Orthorhombic,62,3920.2003865394863,4.305102807150928,49.00250483174358,1.92648886,-2.2730137235,-0.425142452833333,True,1.8562999999999992
mp-645655,Te4 Mo12 Se28 I24,68,Monoclinic,14,2548.68267186578,4.507447403489668,37.48062752743794,1.76624142,-4.793541708970588,-0.7173233409160541,False,1.070099999999999
mp-1101301,Te4 O12,16,Monoclinic,12,222.12271245320855,5.250929414722769,13.882669528325534,1.05276267,-5.83847837125,-1.341681144166666,False,2.1595
mp-644827,Te4 P4 Cl36,44,Orthorhombic,46,1293.0218535089339,2.45365613377633,29.386860307021223,0.45993497,-8.849020659772727,-0.6861796870887451,True,1.8036999999999992
mp-2458827,Te2 Pd2 I4,8,Triclinic,2,283.197349613315,5.720809278717776,35.399668701664375,3.28805978,-3.39045849125,-0.547655257916666,False,0.3673
mp-22945,Te2 Rh2 Cl2,6,Monoclinic,12,148.06600555065097,5.9653730469990975,24.677667591775162,4.20424916,-19.220660868333333,-0.6520302558333331,True,0.7797000000000001
mp-1201162,Te4 S28 Br8,40,Orthorhombic,62,1201.6504912994471,2.829336864258865,30.04126228248618,2.39784304,-4.089001560749994,-0.550429967166658,False,2.0926
mp-672186,Te4 S28 Cl8,40,Orthorhombic,62,1136.3569704741917,2.472262792052468,28.408924261854793,1.09967409,-4.204257170749999,-0.623366324166664,True,2.3049
mp-1217322,Te3 Se3,6,Triclinic,1,192.49977990130773,5.345475456222573,32.08329665021795,4.14394815,-19.875322996666664,-0.010930726197914001,False,0.7062
mp-1217269,Te1 Se2,3,Monoclinic,5,93.40362394518606,5.076003416889559,31.13454131506202,3.59545586,-18.023633856666667,-0.010185599374999,False,0.6533000000000001
mp-29299,Te2 Se2 O8,12,Monoclinic,9,186.42124297759074,4.819959972260693,15.535103581465895,2.29839747,-5.753687635833333,-1.348510737335068,False,2.9515000000000002
mp-28481,Ti2 Cl8 O32,42,Monoclinic,15,598.3119557258234,2.473797965779947,14.245522755376747,1.08436338,-5.267939427380953,-0.7699851751587301,False,2.9158
mp-29091,Ti1 Cu4 S4,9,Tetragonal,121,154.27680446480318,4.631598565750239,17.141867162755908,4.66855405,-5.36791565888889,-0.8294982181481491,False,1.4256
mp-30998,Ti4 N16 O48,68,Monoclinic,14,874.768871120761,2.2466792077498132,12.864248104717074,-2.55938759,-7.146969511911765,-1.227902743872549,False,2.8015
mp-13666,Ti2 P4 S12,18,Orthorhombic,43,469.85099079194714,2.136091773944847,26.10283282177484,1.0124747,-5.757764075555555,-0.9181422452910041,False,1.4501
mp-775149,Ti3 S6 O24,33,Trigonal,146,439.76459538834644,2.718611920730176,13.326199860252922,-0.05055945,-7.283643876969709,-2.214925768636375,False,2.2283
mp-29260,Ti2 Se4 O12,18,Monoclinic,14,252.73007423132103,3.965678614826836,14.040559679517834,0.72823227,-6.928486293888889,-1.9756995158912032,False,2.4447
mp-867049,Ti26 Si62 Ni80,168,Hexagonal,191,2015.1986291629116,6.3294622454457,11.995229935493521,9.67288711,-6.676755749345238,-0.700187626170634,False,0.051200000000001
mp-562797,Ti8 Co4 P8 O40,60,Monoclinic,14,717.8308890002013,3.484795654824523,11.963848150003354,2.14812426,-8.437951990166665,-2.888954799896824,True,1.9118
mp-753066,Ti8 Co4 O20,32,Orthorhombic,63,364.3320002709335,4.278175543624662,11.385375008466672,2.75039357,-8.9215445496875,-2.963518827395834,False,1.7405
mp-556401,Ti8 Fe4 P8 O40,60,Monoclinic,14,730.5755105749189,3.395927803771069,12.17625850958198,2.39033405,-8.5641576065,-2.926053450230159,False,1.9465
mp-1217120,Ti2 Fe1 Ni1 Sb2,6,Trigonal,160,104.34455277712658,7.221651617365096,17.390758796187765,7.72511873,-7.027681481666666,-0.644490747777776,False,0.9409999999999991
mp-2713207,Ti12 P12 S6 O72,102,Monoclinic,9,1421.8174827537298,2.6749976074218953,13.939387085820881,0.3375415,-8.110794943137256,-2.808687724810926,False,2.5547
mp-27921,Ti16 P8 Cl104,128,Orthorhombic,62,4075.913336965478,1.915109175378282,31.843072945042795,-0.77281317,-4.545579231328125,-1.71823460890997,True,2.3251
mp-771649,Ti4 V2 P6 O24,36,Trigonal,167,456.46903874836175,3.140065623096074,12.679695520787826,4.30857646,-8.515042937777777,-2.931885007810845,False,0.07690000000000001
mp-766093,Ti4 Ni15 O24,43,Trigonal,164,430.9075001418516,5.610260758500354,10.021104654461665,4.44011539,-7.363980825581396,-1.8515370491472871,False,1.2556
mp-554569,Ti8 Fe2 P12 O48,70,Trigonal,155,913.4565939947474,2.970901623468081,13.049379914210677,0.9304954400000001,-8.422193779571428,-2.9565967924625842,False,2.3278
mp-19383,Ti4 Mn1 P6 O24,35,Trigonal,148,443.18970109848283,3.058258803092032,12.66256288852808,1.01305743,-8.477269143428572,-2.991900896832042,False,2.4649
mp-1208924,Ti16 S96 Cl24 O4,140,Orthorhombic,60,3933.6307554993878,2.008951870478073,28.09736253928134,1.01862287,-5.362404002642857,-1.164066417166666,True,1.0792
mp-556341,Ti16 S32 Br24 O4,76,Monoclinic,14,2307.471907327729,2.715649938100502,30.36147246483854,0.00646617,-5.767486033684211,-1.585460516754386,False,1.4006
mp-558135,Ti8 S16 Cl12 O2,38,Monoclinic,15,1055.8625045216165,2.128488791802104,27.785855382147805,0.22313332,-5.987563709473684,-1.738718319385964,False,1.597
mp-582657,Ti8 Te18 I8 O2,36,Monoclinic,15,1194.6271368429152,5.180511997495214,33.18408713452542,3.53833805,-5.054310530000003,-1.114547609351855,False,0.39629999999999904
mp-559530,Ti20 P16 O80,116,Orthorhombic,19,1391.695212653798,3.260800926509812,11.99737252287757,2.12641984,-8.653302653103442,-3.132662160525444,False,2.9311
mp-28913,Ti12 C2 Cl28,42,Orthorhombic,64,918.1871037790434,2.877517345931153,21.861597709024842,2.21688697,-5.939075576904762,-2.011398586785714,False,0.9743
mp-1208280,Ti8 Ag8 P8 O40,64,Orthorhombic,33,826.738490692935,4.285521230056063,12.91778891707711,1.38677076,-7.69535160265625,-2.583638071986606,False,2.4369
mp-998980,Ti1 Al1 Fe1 Co1,4,Cubic,216,49.02314051966825,6.4231421299543,12.255785129917063,7.22050147,-7.38602,-0.574893555833333,False,0.12460000000000002
mp-17196,Ti4 As8 O28,40,Monoclinic,14,546.3010011686432,3.765535198070498,13.65752502921608,-0.18042416,-7.3767722527499995,-2.189625841083333,False,2.7625
mp-569814,Ti8 Br32,40,Cubic,205,1498.950674987776,3.256784298476501,37.4737668746944,-2.7744137700000002,-4.547424562250001,-1.658768930916667,True,2.4977
mp-27849,Ti2 Br2 N2,6,Orthorhombic,59,114.04447583953979,4.128694667402223,19.0074126399233,2.23725451,-7.6342475016666675,-1.677342069444446,True,0.5646
mp-13641,Ti2 Cd2 O6,10,Trigonal,148,119.04414777961351,5.810462306526291,11.904414777961351,1.77877982,-7.411338015,-2.671460970666666,False,2.9057
mp-2017901,Ti4 Cl12,16,Monoclinic,9,390.94633641069476,2.620291065384653,24.434146025668422,2.39731455,-9.655950175000001,-1.807181748541666,False,0.352199999999999
mp-5967,Ti1 Co1 Sb1,3,Cubic,216,50.222441895432794,7.557042599749188,16.740813965144266,7.3977234,-17.95148674,-0.658718782222221,False,1.043199999999999
mp-1025502,Ti1 Cu1 F6,8,Triclinic,2,99.71045572440563,3.753780690375513,12.463806965550704,-0.75932842,-5.93054627875,-2.995819661666666,False,0.20070000000000002
mp-866375,Ti1 Fe2 Ge1,4,Cubic,225,47.18664242767824,8.1712147720253,11.79666060691956,7.16593483,-7.844281295,-0.479640722083333,False,0.17089999999999902
mp-866141,Ti1 Fe2 Si1,4,Cubic,225,45.006166962292156,6.92322236784906,11.251541740573039,8.38954649,-8.24007023,-0.6748571133333341,False,0.401599999999998
mp-19963,Ti1 Fe2 Sn1,4,Cubic,225,53.810190841270924,8.587095069196165,13.452547710317731,8.82910951,-7.480849065000001,-0.269572492083334,False,0.04870000000000001
mp-1277107,Ti4 Fe4 O12,20,Triclinic,2,219.16653632662977,4.597795231408048,10.958326816331489,3.56187732,-8.971592041000001,-2.729712792666666,False,2.2487
mp-961673,Ti1 Fe1 Te1,3,Cubic,216,49.995294755868,7.682775238129715,16.665098251956,8.34164394,-7.153824243333332,-0.650884536666665,False,0.9852000000000001
mp-1105715,Ti4 Ge4 S12,20,Orthorhombic,62,434.35899785867554,3.313776287212382,21.717949892933778,4.01828546,-6.167187986999997,-1.180468272166663,False,0.32369999999999904
mp-574169,Ti2 Ge2 Te12,16,Monoclinic,12,500.975959300474,5.8741952118512915,31.310997456279626,5.29405764,-22.748924890625,-0.334789833958332,False,0.336699999999999
mp-1205304,Ti2 I4 O14,20,Orthorhombic,36,298.9699139845672,4.595232181482023,14.94849569922836,1.8998583900000001,-6.146762333000001,-1.588837904833334,False,2.536299999999999
mp-23264,Ti4 I12,16,Orthorhombic,59,616.572048916698,4.616975519632068,38.535753057293626,3.0097426,-4.205900332500001,-1.089017867083334,True,0.180899999999999
mp-541013,Ti2 I8,10,Monoclinic,15,403.0048734279414,4.577633696087508,40.30048734279414,1.73853261,-3.829497920999998,-1.031189425666664,False,1.0859
mp-19082,Ti2 Mn2 O6,10,Trigonal,148,107.83263051258717,4.644506556173096,10.783263051258718,3.64199834,-9.334882121,-2.9546040562528733,False,2.004899999999999
mp-27850,Ti2 N2 Cl2,6,Orthorhombic,59,104.2300896701422,3.101115773472359,17.371681611690367,2.47889666,-11.178653548333335,-1.772338020972223,True,0.5636999999999991
mp-1216943,Ti2 Nb2 P6 O24,34,Trigonal,161,488.3853413335765,2.8947251591327063,14.364274745105192,-0.06113991,-8.471452521470589,-2.964467245427171,False,2.7411000000000003
mp-29699,Ti2 Nb6 O12,20,Trigonal,148,266.3836037693696,5.268453512931599,13.31918018846848,3.753523,-9.692260502500002,-2.903543185833335,False,0.520799999999999
mp-1216682,Ti1 Ni4 Ge1 O8,14,Cubic,216,146.37989859974792,5.482298823260356,10.455707042839137,4.14042932,-7.313802467142857,-1.940748564880951,True,2.4005
mp-924130,Ti1 Ni1 Sn1,3,Cubic,216,51.52463255869068,7.260028479048589,17.174877519563562,7.66299415,-6.424489200000001,-0.529422349444445,False,0.45270000000000005
mp-390,Ti2 O4,6,Tetragonal,141,68.78397225482972,3.856139057916947,11.463995375804954,1.9577428700000001,-9.438526794166666,-3.5080554519444442,False,2.0586
mp-1203568,Ti4 P8 S32 Cl8,52,Monoclinic,14,1508.7721920901095,1.924889590115913,29.01484984788672,0.41409843,-5.229656517307692,-0.9580871936630011,False,1.8109000000000002
mp-557289,Ti4 P8 Cl32 O12,56,Monoclinic,14,1372.7425766033552,2.135937030372225,24.513260296488486,-1.1829977,-5.394423262142859,-1.94023294197279,False,2.7291
mp-707483,Ti4 P8 H16 O36,64,Monoclinic,14,645.6311589273591,2.652628237831694,10.087986858239987,0.00479553,-7.133555729531251,-2.331133612819942,False,2.9959000000000002
mp-761010,Ti4 P8 O28,40,Monoclinic,14,532.326265020756,2.7676613579293683,13.3081566255189,0.35334009,-8.297348034749984,-2.961131424511889,True,2.6682
mp-559493,Ti8 P8 Cl56 O8,80,Orthorhombic,61,2417.554077896839,1.884825460537777,30.219425973710486,-1.47293505,-4.9578642058749995,-1.837991591172619,False,2.602
mp-27664,Ti2 P2 Cl18,22,Triclinic,2,582.6535105366414,2.268099229287961,26.484250478938247,0.04086016,-4.270316570454546,-1.547784684816017,False,2.1747
mp-554704,Ti4 P4 H4 O20,32,Monoclinic,4,358.14652580491895,2.964485356406115,11.192078931403717,1.09084477,-7.9432124315625,-2.762470305840774,False,2.85
mp-989624,Ti4 P4 N12,20,Monoclinic,15,196.48484372342958,4.085692904770749,9.824242186171478,6.60357758,-10.9222667405,-1.057049672678572,False,0.5396000000000001
mp-1541018,Ti2 P2 O8 F2,14,Monoclinic,15,176.37702899221495,3.047293318889422,12.598359213729639,3.10497933,-8.169380259285715,-3.166999982568028,False,2.4692
mp-9920,Ti2 S6,8,Monoclinic,11,153.2064428549375,3.12285272805444,19.15080535686719,4.34122707,-6.41866354375,-1.341020863958332,False,0.22610000000000002
mp-505270,Ti4 S4 O20,28,Monoclinic,15,333.9744584548558,3.180702543672739,11.927659230530564,0.8703580200000001,-7.798244549821428,-2.54486503422619,False,2.574599999999999
mp-1043703,Ti2 Sb2 P6 O24,34,Trigonal,161,470.51947961034506,3.208297481340644,13.838808223833679,0.88066347,-7.834115391470588,-2.678442103662465,True,2.2085
mp-505113,Ti2 Sn12 F32,46,Monoclinic,15,754.0604243456492,4.686579413252424,16.39261792055759,1.26845577,-5.5559405489130445,-2.83530745557971,False,2.7165
mp-961682,Ti1 Sn1 Pd1,3,Cubic,216,58.88011017655135,7.6990715914987025,19.62670339218378,6.5459238,-20.84722178,-0.6324236455555551,False,0.20389999999999903
mp-1216939,Ti8 Te8 O24 F16,56,Monoclinic,14,838.4090628655888,4.142778462578939,14.971590408314086,3.79221921,-6.995415072857143,-2.751074262142857,False,2.7386
mp-752445,Ti4 V8 O28,40,Cubic,205,632.404360154983,2.749121630419838,15.810109003874576,-0.50011998,-8.7615947285,-2.691691609333334,False,2.1462
mp-2713749,Ti6 Zn6 S18 O72,102,Trigonal,161,1436.2772402369976,2.784892658811554,14.081149414088213,-0.04804424,-6.873823073725491,-2.112302697892158,True,2.2227
mp-1016108,Ti4 Zn4 N8,16,Orthorhombic,33,192.46127318774413,4.876130444541075,12.028829574234008,2.89351753,-7.48594844625,-1.028000667083334,False,2.342
mp-15361,V6 P18 O54,78,Monoclinic,9,951.2175484936732,3.015073276261377,12.195096775559913,3.89498962,-8.026630277948733,-2.6526321478663153,True,2.1791