material_id,composition,nsites,crystal_system,space_group,volume,density,density_atomic,efermi,energy_per_atom,formation_energy_per_atom,is_gap_direct,band_gap
mp-1112938,Cs2 Sc1 Ag1 I6,10,Cubic,225,426.7064421289749,4.592240908229201,42.67064421289749,1.34041667,-3.40053075,-1.386986988597701,False,2.0571
mp-1113068,Cs2 Sc1 In1 I6,10,Cubic,225,488.5512997694577,4.034538838981295,48.855129976945776,1.273385419999999,-3.448794627,-1.443627259097701,True,1.9467999999999992
mp-1112484,Cs2 Sc1 Tl1 I6,10,Cubic,225,496.6738014999957,4.268004205203559,49.66738014999957,0.7075,-3.447532894,-1.481135688764369,False,2.4146
mp-1011695,Cs2 Se1,3,Cubic,225,150.75814547762872,3.797509932037771,50.25271515920957,0.60717769,-22.77451832,-1.265029576354166,False,1.7952
mp-7449,Cs4 Se6,10,Orthorhombic,36,391.7321954929755,4.261778295418819,39.17321954929755,1.26110201,-19.614348623,-0.9840312844375001,False,0.7396
mp-541055,Cs8 Se20,28,Orthorhombic,19,1037.1543444648842,4.23069225688993,37.04122658803158,1.01137219,-18.129228242857142,-0.7328415064732151,False,0.9618000000000001
mp-27830,Cs2 Se1 Cl6,9,Cubic,225,281.27360352729465,3.291215714332314,31.25262261414385,-0.5962246800000001,-12.547136724444444,-1.2756812115624991,False,2.7509
mp-542550,Cs8 Si8 Se20,36,Monoclinic,15,1307.822471055959,3.640385082329403,36.32840197377664,0.73239646,-4.4691468225,-1.119574757058788,False,2.515399999999999
mp-573721,Cs4 Si2 As4,10,Orthorhombic,72,361.6928321391662,4.074434890785969,36.16928321391662,2.77797397,-3.760144335999999,-0.443840688862069,False,1.0347
mp-8932,Cs4 Si2 P4,10,Orthorhombic,72,334.5562218589219,3.532397278048302,33.45562218589219,3.18273867,-15.995577372,-0.5966127281904761,False,1.2699
mp-1103520,Cs4 Si2 S6,12,Monoclinic,12,405.3501610567181,3.196061468761071,33.77918008805984,1.18892153,-15.167341906666666,-1.318063933072916,False,2.9485
mp-637251,Cs4 Si2 Se8,14,Monoclinic,12,512.4728021733085,3.951394550283617,36.605200155236325,0.85687395,-4.176096671428569,-1.143965374097903,False,1.9385000000000001
mp-561641,Cs4 Sn2 Au4 S8,18,Orthorhombic,70,598.1569911469401,5.034243888905141,33.23094395260778,1.38629095,-4.142391771666666,-0.9283107421455931,False,2.0449
mp-540707,Cs4 Sn2 Ge6 O18,30,Hexagonal,176,504.8255655669113,4.910548907582482,16.827518852230376,0.91091246,-6.445824427000001,-2.16407378662069,False,2.6155
mp-505233,Cs2 Sn1 H12 N6,21,Trigonal,147,257.34872083850615,3.10142867743821,12.254700992309816,0.6268427400000001,-4.990088058095238,-0.390221832824302,True,2.5332
mp-1193049,Cs2 Sn1 H6 O12,21,Trigonal,147,273.02283645361297,3.543168339455922,13.001087450172045,0.7325250600000001,-5.219707631428571,-1.144847741514778,False,2.5642
mp-561185,Cs2 Sn2 Hg3 S8,15,Triclinic,2,458.64733068220806,4.9294054483857135,30.576488712147203,1.29139537,-3.7087499740000043,-0.7840172071206941,True,1.6243
mp-540796,Cs8 Sn8 O12,28,Orthorhombic,62,768.0983169843192,4.766772384559166,27.432082749439974,2.255051,-5.244965972857138,-1.719397134901473,False,2.5267
mp-1195304,Cs4 Sn6 Sb4 S20,34,Monoclinic,14,1049.1490013489135,3.754630639780999,30.857323569085693,4.13364712,-4.592122728235294,-0.857636324665314,False,1.8595000000000002
mp-1195323,Cs8 Sn12 Hg4 Se32,56,Orthorhombic,19,2120.861060723037,4.554327601285408,37.8725189414828,2.2251437,-3.878651548214286,-0.869963365040025,True,1.203399999999999
mp-8934,Cs4 Sn2 As4,10,Orthorhombic,72,406.29131282220163,4.36796181530421,40.629131282220165,2.44471373,-3.456218709,-0.42306429686207003,False,0.7669
mp-568403,Cs4 Sn2 As4 Se18,28,Monoclinic,4,978.3969021946417,4.226051713368852,34.94274650695149,2.33472645,-4.074896322142857,-0.7442552250288641,False,0.7742000000000001
mp-641923,Cs2 Sn1 Br6,9,Cubic,225,331.5067533175784,4.327556678085349,36.834083701953155,-0.47320015,-3.3482384344444442,-1.609659967145594,True,1.438899999999999
mp-608555,Cs2 Sn1 Cl6,9,Cubic,225,288.8351831267041,3.433579389870279,32.09279812518935,-0.55795634,-14.139066036666668,-1.7082079072222212,True,2.59
mp-27636,Cs2 Sn1 I6,9,Cubic,225,408.6204302099646,4.656866918458945,45.4022700233294,1.20192082,-2.8264911144444422,-1.163201927145591,True,0.293799999999999
mp-861243,Cs4 Sn2 O6,12,Orthorhombic,63,257.2365837626113,5.584080292199178,21.436381980217607,2.22752739,-5.342029919999997,-1.8971282515517212,True,2.386
mp-505141,Cs8 Sn4 S56,68,Monoclinic,14,1992.2764655826825,2.778619531937065,29.29818331739239,1.79318242,-11.431145817205882,-0.40449423305147,True,1.5134
mp-1103379,Cs4 Sn2 Se6,12,Monoclinic,12,495.51548296263434,4.164796105304577,41.292956913552864,0.68792562,-20.750348649166668,-1.100720237031249,True,1.723599999999999
mp-28877,Cs8 Sn4 Te16,28,Orthorhombic,62,1224.1236073429882,4.8558858382036,43.71870026224958,2.84597168,-3.492951495357143,-0.864558556925287,False,0.633
mp-18160,Cs2 Sr1 V4 O12,19,Tetragonal,123,371.70682911750066,3.346881665876312,19.56351732197372,-0.56023566,-7.785483106842105,-2.563402076805808,True,2.6812
mp-569879,Cs2 Ta6 Pb1 Cl18,27,Trigonal,148,723.5177768820963,5.041975458385857,26.7969546993369,2.88882847,-5.867638436666666,-1.7934185156781601,False,1.4561000000000002
mp-15218,Cs4 Ta2 Ag2 S8,16,Orthorhombic,70,554.107188504508,4.092928365477489,34.63169928153175,0.82269855,-5.46099998,-1.3260926510387931,False,2.5939
mp-646007,Cs2 Tb6 Te7 N2,17,Monoclinic,8,574.786225751724,6.184056931606758,33.81095445598377,3.33591986,-5.7028798582352955,-1.6838896450574712,False,0.7433999999999991
mp-1205840,Cs2 Tc1 Cl6,9,Cubic,225,278.37875580430796,3.439015182814313,30.93097286714533,0.02274972,-14.202285888888888,-1.636041284999998,True,1.2924
mp-1079364,Cs2 Tc1 F6,9,Trigonal,164,167.86836061171886,4.726368685697866,18.652040067968763,0.246295699999999,-13.405971224444444,-2.857333918888888,False,1.8113000000000001
mp-1206848,Cs2 Tc1 I6,9,Cubic,225,395.550080084172,4.723804376892929,43.950008898241336,1.32719143,-3.409769293333334,-1.040805984923372,False,0.6815
mp-573763,Cs8 Te4,12,Orthorhombic,62,640.9059681586167,4.077192021558062,53.40883067988472,1.23386583,-26.431477753333336,-1.220100983333334,True,1.774
mp-504924,Cs16 Te16 O40,72,Orthorhombic,61,1570.562821746672,5.083513195532648,21.813372524259332,2.5075251400000003,-5.392910002083334,-1.743757562932632,True,2.8746
mp-505634,Cs4 Te6,10,Orthorhombic,36,470.6798386886195,4.576545057818624,47.06798386886195,2.2710084200000002,-26.202443477000003,-0.9087276910000011,False,0.5258
mp-1203081,Cs8 Te16 O36,60,Tetragonal,122,1256.345983245707,4.8650203327355,20.93909972076178,2.44482498,-5.603692927166667,-1.675637743231801,True,2.405899999999999
mp-23405,Cs2 Te1 Br6,9,Cubic,225,340.0543915722945,4.26219008597576,37.7838212858105,-0.09562952,-3.096817772222222,-1.45449107844189,False,2.1121
mp-23465,Cs2 Te1 Cl6,9,Cubic,225,294.26918964864035,3.420340149633411,32.696576627626705,-0.00621166,-13.95263417,-1.447215981666665,False,2.7815000000000003
mp-540957,Cs2 Te1 I6,9,Cubic,225,417.54632418324377,4.592671626805513,46.39403602036042,1.21245149,-2.637432228888886,-1.070394815108554,False,1.3877000000000002
mp-669353,Cs8 Te4 O16,28,Orthorhombic,62,667.4548489688699,4.551886565081376,23.83767317745964,-0.11475191,-5.33280672142857,-1.7969345708538582,True,2.846899999999999
mp-640389,Cs8 Th4 P12 S36,60,Triclinic,2,1727.2985846132967,3.381473842959487,28.788309743554944,2.14872259,-5.407257877,-1.225826538715926,False,2.285199999999999
mp-1204762,Cs16 Th16 P16 Se104,152,Orthorhombic,61,5004.608776760513,4.826562837055105,32.92505774184548,2.26727037,-5.065221502697368,-1.227249507911305,False,1.6041999999999992
mp-10488,Cs4 Ti2 Ag4 S8,18,Tetragonal,132,522.7814447441749,4.178013146940504,29.043413596898606,2.1021276,-4.773329093888889,-1.223244562330778,False,1.6053000000000002
mp-10489,Cs4 Ti2 Cu4 Se8,18,Tetragonal,132,508.47692004534247,4.941739748283294,28.248717780296804,2.6260982,-4.7125449800000005,-1.168822045779853,False,1.3642
mp-16805,Cs4 Ti2 Ge6 O18,30,Hexagonal,176,489.04418750840074,4.587919759879522,16.30147291694669,3.5943538,-6.974579212,-2.433767227509579,False,2.9569
mp-1226157,Cs2 Ti1 W3 O12,18,Trigonal,166,272.7609705852426,6.436061804368826,15.1533872547357,3.73088548,-8.504974010555557,-2.507120126813539,False,2.8344
mp-680170,Cs6 Ti6 S27,39,Trigonal,146,1100.4524801895534,2.943060576606208,28.2167302612706,2.14813859,-5.54250794076923,-1.323109842190537,False,0.8114999999999991
mp-27828,Cs2 Ti1 Cl6,9,Cubic,225,277.04734215873464,3.155059911230977,30.783038017637182,-0.71263014,-13.180390786666667,-2.06158007574074,False,2.2291
mp-1195388,Cs4 Ti2 Cu6 F24,36,Monoclinic,14,600.2790201416755,4.051473757920147,16.67441722615765,-0.28653685,-5.194079180277778,-2.695451643202426,False,0.33390000000000003
mp-1206662,Cs2 Ti1 I6,9,Cubic,225,397.99618364150496,4.485604304598483,44.22179818238944,1.22989296,-3.471810146666667,-1.376752052515965,False,0.8643000000000001
mp-1203715,Cs4 Ti2 P8 O26,40,Triclinic,2,632.742985096832,3.3883778401285882,15.818574627420798,2.77661122,-7.6094961435,-2.8246544273107563,True,2.691
mp-3247,Cs4 Ti2 S6,12,Orthorhombic,63,378.61999565488804,3.5952140769715673,31.551666304574002,1.96318898,-5.308415790833332,-1.6206614808572781,False,1.2724
mp-1113150,Cs2 Tl1 Ag1 F6,10,Cubic,225,204.3449795764139,5.623728809606423,20.43449795764139,0.31667793,-4.213349169,-2.3620012504310353,False,0.805299999999999
mp-1112112,Cs2 Tl1 As1 Br6,10,Cubic,225,395.9075343730901,4.297186140169187,39.590753437309004,0.86213521,-3.289725431,-1.421802531014368,True,1.2314
mp-1112544,Cs2 Tl1 As1 I6,10,Cubic,225,478.7250597001039,4.531964694635132,47.87250597001039,1.6666666700000001,-2.859277701,-1.059115153014369,True,1.0046
mp-1199662,Cs16 Tl8 Br40,64,Orthorhombic,62,2758.6949238306293,4.18805109535332,43.10460818485358,0.40261025,-3.076567005312499,-1.53004701376796,True,1.276
mp-541696,Cs8 Tl4 Cl20,32,Orthorhombic,62,1068.8357791307494,4.023560299652399,33.40111809783592,-0.6527377,-3.4457285568750002,-1.766960899705461,False,1.8090000000000002
mp-504603,Cs2 Tl1 Fe1 F6,10,Cubic,225,206.66238739425094,5.142659030379203,20.666238739425093,0.27985477000000003,-5.138566924,-2.7245106522643683,False,2.9057
mp-996944,Cs2 Tl1 In1 Br6,10,Cubic,225,410.9472562190818,4.301130798573819,41.09472562190818,0.05294794,-3.2538675870000002,-1.577039565931035,False,1.8255
mp-1112490,Cs2 Tl1 In1 Cl6,10,Cubic,225,356.55708452003284,3.715147519224946,35.65570845200328,0.1556318,-3.6529785919999993,-1.849192811931035,False,2.7015000000000002
mp-1112340,Cs2 Tl1 Rh1 F6,10,Cubic,225,207.59524131651742,5.495983358197139,20.75952413165174,1.22990666,-4.72621573,-2.422730792264368,False,1.9056000000000002
mp-1112339,Cs2 Tl1 Ru1 F6,10,Cubic,225,211.13566321507432,5.389388295338034,21.11356632150743,2.16162413,-4.8992338339999995,-2.4047394292643682,False,0.5579000000000001
mp-572551,Cs4 U2 Br8 O4,18,Monoclinic,14,657.6542786348285,4.319946975383021,36.53634881304603,-0.7256142600000001,-5.761918867777777,-2.47846627881226,False,1.9545
mp-541275,Cs2 U1 Cl4 O2,9,Monoclinic,12,282.1953084725205,3.987540841168678,31.3550342747245,-0.43711851,-6.075502226666667,-2.698006853256704,False,2.3217
mp-1197866,Cs4 U2 Si12 O30,48,Orthorhombic,36,842.0057690411124,3.598508705495019,17.541786855023176,4.66286788,-8.215845936041667,-3.220900585804598,False,0.27079999999999904
mp-581584,Cs16 U8 Si16 O64,104,Orthorhombic,73,1979.2645458321608,4.617718703147095,19.031389863770777,1.10005271,-8.08609686201923,-3.198274611966179,True,2.2088
mp-548479,Cs2 U2 O7,11,Monoclinic,12,218.31362193790375,6.494672145364342,19.846692903445796,2.10590244,-8.641752183636335,-3.274979256755456,True,1.5078
mp-562366,Cs2 U3 Te2 O14,21,Triclinic,2,428.3570348715512,5.656203767277672,20.397954041502437,1.63241883,-8.16800869,-2.870472926792555,False,1.8635000000000002
mp-1228671,Cs2 U4 Nb4 O23,33,Monoclinic,8,580.3193295967957,5.601344976157735,17.58543423020593,0.85801256,-9.382779329393939,-3.286115133766979,False,1.838499999999999
mp-1196336,Cs8 U4 As8 O36,56,Orthorhombic,59,1151.1030637106142,4.602801893333032,20.555411851975254,0.15971434,-7.251990088035714,-2.467757283700739,False,2.1136
mp-581443,Cs24 U12 Mo12 O84,132,Orthorhombic,29,2847.217655055995,4.981415641066679,21.56983072012117,1.82264398,-8.062206448333335,-2.7359571487251833,True,1.9356
mp-2991,Cs2 U1 O4,7,Tetragonal,139,144.21224791468762,6.538392007104804,20.601749702098232,2.41630776,-7.718702774285715,-3.018815749901478,False,1.8211
mp-561356,Cs8 U4 P8 O36,56,Orthorhombic,59,1047.0698016069916,4.502548482154912,18.697675028696278,0.64077206,-7.897072034642858,-3.006360517042576,False,2.1222
mp-541679,Cs8 V4 P8 O32,52,Orthorhombic,62,971.3643629303303,3.464763941018194,18.680083902506354,3.54911837,-7.3900274425,-2.6735277270073903,True,2.9895
mp-1192739,Cs4 V6 O16,26,Tetragonal,100,483.7078970512223,3.753097595232873,18.60414988658547,0.48792782,-7.733396746923077,-2.452522793793103,True,2.1336
mp-560444,Cs4 V8 O18,30,Tetragonal,84,501.7020221266399,4.061611902194921,16.723400737554662,2.51157135,-7.983784118666668,-2.471568887620692,False,0.097099999999999
mp-8684,Cs4 V2 Ag2 S8,16,Orthorhombic,70,525.5225312412632,3.49396947684366,32.84515820257895,1.08833407,-5.01590259625,-1.228872951372126,False,1.3867
mp-27239,Cs4 V2 F12,18,Orthorhombic,63,326.6006178954938,4.380060820815353,18.14447877197188,-0.69025418,-12.42566664,-3.19648337,False,1.7856
mp-17361,Cs8 W4 S16,28,Orthorhombic,62,971.7505091506088,3.950164671846987,34.705375326807456,0.36337488,-20.307539258928575,-1.204011157678573,True,2.1616
mp-505633,Cs4 Zn6 S8,18,Orthorhombic,72,462.9099168800301,4.23500423926336,25.717217604446116,1.51115815,-13.271635068888889,-1.150667275138889,True,2.694499999999999
mp-1199216,Cs8 Zn4 Bi8 S20,40,Orthorhombic,62,1202.4449917747036,5.023996150464736,30.06112479436759,2.2900152,-22.54928665325,-0.918581502656249,False,1.7343000000000002
mp-1194749,Cs8 Zn4 Ge12 Se32,56,Orthorhombic,19,1937.4927303872714,4.048113420248701,34.598084471201275,0.81034573,-4.120053944821429,-0.912048649325739,True,1.4028
mp-504601,Cs16 Zn8 O16,40,Monoclinic,14,956.8627619384325,5.042636176229599,23.921569048460814,1.51150937,-4.121036076749999,-1.526711924612068,False,1.979
mp-1194701,Cs8 Zn4 Sn12 Se32,56,Orthorhombic,19,2061.3106229849727,4.250306888928319,36.8091182675888,1.1531847100000001,-4.018224131785714,-0.9416736934328811,True,1.2553
mp-1078823,Cs2 Zr1 Ag2 Te4,9,Orthorhombic,21,338.7113668996562,5.310268392359,37.634596322184024,2.54107579,-4.16473185,-0.9844257721455931,False,1.483099999999999
mp-1226158,Cs2 Zr1 W3 O12,18,Monoclinic,5,300.2114676768858,6.087383906279506,16.6784148709381,0.59346045,-8.589833927222223,-2.555746231628352,False,2.9771
mp-571150,Cs2 Zr7 C1 I18,28,Trigonal,148,1034.4657686324995,5.137760805041335,36.94520602258927,3.88890435,-4.821269001785716,-1.310170712028943,False,0.1184
mp-1206511,Cs2 Zr1 I6,9,Cubic,225,409.2922214452346,4.537709952826916,45.47691349391496,0.81901217,-3.6759660322222203,-1.508440314367814,False,1.839799999999999
mp-9856,Cs4 Zr2 Se6,12,Orthorhombic,63,456.05767209087827,4.324974494889575,38.00480600757319,1.20036605,-20.953279745,-1.6363833120312492,True,1.3691
mp-1228215,Cs3 Cr20 Se32,55,Triclinic,2,1244.4824609853483,5.291060878025592,22.626953836097243,3.42655607,-6.497681317636364,-0.903971328617555,False,0.0020999999999990002
mp-1214812,Cs6 Na52 In96,154,Cubic,223,4516.191908656169,4.785586681259741,29.32592148478032,4.6135691,-2.337540178766233,-0.12911144324451201,True,0.008099999999999
mp-1214772,Cs3 Se2 O8,13,Monoclinic,12,266.91049974055903,4.259320804434543,20.531576903119927,-0.34542188,-5.387777837692307,-1.5955129372040782,False,0.42250000000000004
mp-1199633,Cs12 Ag4 As16 Se32,64,Monoclinic,15,2375.8738241508877,4.020034588575883,37.12302850235762,1.03593521,-4.01341644078125,-0.7500006694926361,True,1.604299999999999
mp-1198053,Cs6 Ag4 Sb6 S16,32,Monoclinic,11,1017.9816624685092,4.033168912009277,31.81192695214091,2.06143814,-4.17485093875,-0.8058704182686771,False,1.131599999999999
mp-1226259,Cs3 Ag9 Sb4 S12,28,Tetragonal,82,763.6704627540192,4.873632904496218,27.27394509835783,2.56909745,-3.957020514285714,-0.5824958147844811,False,1.5938999999999992
mp-582723,Cs24 Al8 As16,48,Monoclinic,14,1985.2136804738434,3.8513072156172123,41.35861834320507,2.4568346,-3.111830536458332,-0.47687160211925306,False,0.9690000000000001
mp-562441,Cs12 Al4 O12,28,Monoclinic,14,663.9002966537626,4.739210837805729,23.71072488049152,1.85375895,-5.201715280714284,-2.156945058423644,True,2.2572
mp-619651,Cs24 Al8 P16,48,Monoclinic,14,1862.9267665576697,3.477342350851155,38.81097430328479,2.88924426,-17.279527462291664,-0.6025924699503941,False,1.1821
mp-1193748,Cs12 Al4 Te12,28,Monoclinic,14,1304.3107147033065,4.11724698299171,46.58252552511809,1.53820603,-23.783622920357143,-1.168032883214282,False,2.1588
mp-1201199,Cs12 As4 P12 Se36,64,Monoclinic,14,2126.835870669198,3.988721961901901,33.23181047920622,1.23855036,-4.256599263437501,-0.8126193185304901,False,1.749499999999999
mp-573812,Cs12 As44,56,Monoclinic,15,2027.7020125209895,4.005710412372885,36.208964509303385,1.52372775,-4.146344319464286,-0.28239570742611003,False,1.4052
mp-1541714,Cs3 As2 Cl9,14,Trigonal,164,434.59293477647054,3.315158349482033,31.04235248403361,2.87122369,-3.7529627199999993,-1.7028867931403942,True,2.6409000000000002
mp-573631,Cs24 As56,80,Orthorhombic,61,3042.995595440295,4.030122931638817,38.037444943003685,1.46756867,-3.91864071175,-0.37716166789655303,False,1.5702999999999991
mp-1201774,Cs12 As4 Se16,32,Orthorhombic,62,1262.1523355445192,4.154677532149963,39.44226048576623,0.72710355,-3.7431742065625,-1.070961562292565,True,1.2415
mp-569984,Cs12 Au8 Br44,64,Monoclinic,14,2560.1113806472886,4.336914902603061,40.001740322613884,-0.8496414600000001,-2.9039996584375,-1.199117871185345,True,1.1515
mp-505212,Cs6 Au2 O2,10,Hexagonal,194,378.54733206767725,5.366422164251121,37.854733206767726,1.21020244,-3.05530406,-0.866148916793104,False,1.3261
mp-572441,Cs36 Au12 O24,72,Monoclinic,14,2211.0276517450125,5.656862904085029,30.708717385347395,2.01521676,-3.859074227638889,-1.210118107466476,True,1.8333
mp-1196535,Cs6 B6 Se20,32,Triclinic,2,1012.6808405271759,4.003437044609971,31.646276266474246,1.37869628,-4.4460532025,-0.8384767774939391,False,1.7936
mp-573658,Cs6 B2 As4,12,Monoclinic,15,477.1902634420508,3.893024362004402,39.76585528683757,1.52110264,-3.4617778791666662,-0.337849621355363,False,1.4845000000000002
mp-1019608,Cs24 B8 O24,56,Orthorhombic,55,1277.2631308891625,4.758543738306041,22.80827019444933,1.95212911,-5.594600747857141,-2.13071396259031,False,2.6073
mp-9675,Cs6 B2 P4,12,Monoclinic,15,449.0472849392726,3.486948848909138,37.42060707827272,1.83936388,-17.333937344166667,-0.554626373908727,False,1.6955
mp-30222,Cs12 B4 S12,28,Monoclinic,14,958.0461800106265,3.5061847581648573,34.21593500037952,1.64202552,-4.363153700357141,-1.2462389597331671,False,2.545
mp-635413,Cs3 Bi1,4,Cubic,225,207.19487266897139,4.870314552127646,51.798718167242846,2.29936917,-33.92275759,-0.46584940374999906,False,0.17899999999999902
mp-1200951,Cs12 Bi8 P12 S48,80,Monoclinic,14,2466.5979915762937,3.485555370997631,30.832474894703672,2.13929256,-4.7581792136250005,-0.937642377769704,False,1.9768
mp-27544,Cs3 Bi2 Br9,14,Trigonal,164,553.1314722726557,4.610617677493076,39.50939087661827,-0.29847766000000003,-3.406577960000001,-1.6039693781403952,False,2.599599999999999
mp-669458,Cs6 Bi4 I18,28,Monoclinic,15,1362.8720035122276,4.773291673624063,48.6740001254367,0.85873557,-2.941833981428573,-1.211825776711825,False,2.3796
mp-581738,Cs12 Bi4 Se12,28,Cubic,198,1235.6490229706226,4.539971048447071,44.130322248950804,1.54798675,-26.3838199825,-1.132060919955356,False,2.034799999999999
mp-1205638,Cs6 Br2 O2,10,Hexagonal,194,379.57767416983114,4.327627694375486,37.95776741698312,1.26028733,-3.4093318509999992,-1.5475638007931032,False,1.551499999999999
mp-1184118,Cs6 Cd2 H10,18,Tetragonal,140,447.7653504989168,3.828413966943704,24.875852805495377,0.21724229,-12.780809555555557,-0.257930811527777,False,2.7222