material_id,composition,nsites,crystal_system,space_group,volume,density,density_atomic,efermi,energy_per_atom,formation_energy_per_atom,is_gap_direct,band_gap
mp-28579,Hg12 Te8 I8,28,Monoclinic,15,1047.6930295692646,7.042107839487522,37.41760819890231,1.28514551,-1.9411515028571462,-0.47491534154762505,True,1.4667000000000001
mp-27292,Hg6 As4 F24,34,Monoclinic,14,549.1289848232561,5.9244884722128415,16.15085249480165,-2.09100561,-14.610797633235293,-1.961926048382353,False,2.6234
mp-555833,Hg6 As16 S16 Br12,50,Monoclinic,14,1700.311924204258,3.783550842649704,34.00623848408516,0.29580663,-3.790458602999999,-0.5417165181,False,1.7802000000000002
mp-4445,Hg12 As4 O16,32,Monoclinic,14,561.6064054579748,8.760180374408053,17.550200170561713,0.604935999999999,-4.233052750937499,-1.059179917812502,False,0.5021
mp-1203433,Hg12 As4 O20,36,Monoclinic,14,575.0555380294812,8.740101770736748,15.973764945263367,0.55790218,-4.430336088333336,-1.059342347222227,False,1.3663
mp-1104411,Hg3 Bi2 S2 Cl8,15,Monoclinic,12,429.1832321729204,5.290891542721745,28.612215478194692,0.43304181,-3.21811063,-1.099834212166668,False,2.7814
mp-1198489,Hg12 H16 I8 O48,84,Monoclinic,14,1075.6858279961668,6.493452451916158,12.805783666621034,2.20871708,-4.498372676547619,-0.834885097619049,False,1.144299999999999
mp-554914,Hg12 P4 O16,32,Monoclinic,14,569.7441310601517,8.122707635543463,17.804504095629742,0.02652683,-4.780033393749999,-1.512991686517859,False,2.2021
mp-30890,Hg9 S3 O18,30,Trigonal,144,441.268022967525,8.23930234224492,14.7089340989175,0.61464848,-4.663188231333332,-1.187674060333334,False,0.5752
mp-542115,Hg6 Se6 O20,32,Monoclinic,4,481.7116702017816,6.884979037070284,15.053489693805675,0.5829352600000001,-4.8234441893749995,-1.017421652158204,True,1.8688999999999991
mp-754598,Hg9 Se3 O18,30,Trigonal,144,461.40257500825146,8.386068486309458,15.380085833608382,0.40229746,-4.287424007333338,-0.876154645317715,False,0.43670000000000003
mp-29097,Hg24 Te8 Br32,64,Orthorhombic,61,2311.6195791515465,6.028266066013526,36.119055924242915,-0.37130001,-2.06668150609375,-0.739167987864585,False,2.0454
mp-29102,Hg24 Te8 Cl32,64,Orthorhombic,61,1871.5121248830824,6.183798548284994,29.242376951298162,-0.20325843000000002,-25.3882294465625,-0.621929513125003,True,2.3567
mp-3538,Hg24 Te8 O48,80,Cubic,206,1243.7122058745706,8.815886151058477,15.546402573432132,1.2337229,-4.397884982000002,-1.021876178416671,True,1.236899999999999
mp-1190557,Hg8 Bi2 S4 Cl10,24,Monoclinic,4,735.669620296984,5.655299646526143,30.652900845707666,2.24804936,-2.8080883470833333,-0.9207420475000021,True,2.3713
mp-1194941,Hg16 Bi4 Se8 Cl20,48,Monoclinic,14,1517.9306964059929,5.892121520865935,31.62355617512485,-0.132679,-2.715047867916666,-0.93477624997396,False,2.105
mp-31132,Hg8 O2 F12,22,Hexagonal,186,318.3403211187897,9.726718205711238,14.470014596308623,-0.67044495,-3.125178201818181,-1.518836074090911,True,0.2036
mp-29710,Hg8 P4 O14,26,Monoclinic,13,429.6619755647263,7.546349933445363,16.525460598643317,0.6410947300000001,-5.319461209999999,-1.726741038021978,False,1.588499999999999
mp-646297,Hg8 Pb4 N12 O38,62,Cubic,227,937.2158218741442,5.686661351306088,15.11638422377652,-0.38065289,-5.844588594354839,-0.9186238248387101,False,1.8082
mp-29043,Hg32 Sb16 I24,72,Cubic,205,2691.843812702575,7.040272034448397,37.3867196208691,1.76122661,-1.913352600138889,-0.350160547361113,False,0.726799999999999
mp-23358,Hg10 Cl4 O8,22,Orthorhombic,72,426.82732052950286,8.853464921258938,19.40124184225013,0.38953132,-3.028221203636362,-0.752103948409092,False,0.186199999999999
mp-28889,Hg20 Sb8 I24,52,Orthorhombic,33,1974.5938016531275,6.754181256966425,37.972957724098606,1.4420424,-1.8945191528846141,-0.436793125384616,True,1.5463
mp-570652,Hg24 Bi4 As16 Cl28,72,Cubic,205,1865.922272528306,6.978391265536445,25.915587118448695,1.10834151,-25.928926945972222,-0.561909773055551,True,1.3316
mp-568828,Hg24 Bi4 Sb16 Br28,72,Cubic,205,2298.055176693274,7.107018647802543,31.917433009628805,1.15847755,-2.502961284027776,-0.629478104027778,True,1.079
mp-1200201,Hg24 P16 Pb4 Cl24,68,Cubic,198,1785.1559762756394,6.501500233946094,26.252293768759404,1.38987309,-2.940969557794117,-0.6866266050630271,False,2.1079
mp-23453,Hg24 Sb20 Br28,72,Cubic,205,2289.154270188782,6.8815761668702375,31.79380930817753,1.27811233,-2.495536325277773,-0.60877720472222,False,1.0115
mp-29958,Hg14 P4 O20,38,Monoclinic,14,614.0859635155122,8.794062887319495,16.16015693461874,0.6155143200000001,-4.6879648905263185,-1.399635345093989,False,1.6085
mp-541193,Hg28 Cl8 O12,48,Orthorhombic,57,1101.372578455472,9.185112607087216,22.945262051155666,0.58217091,-2.336352967708331,-0.6106302279166691,True,1.3838
mp-1205446,Hg32 Br12 O16,60,Monoclinic,14,1394.1229179182892,9.092517929158813,23.23538196530482,0.3481822,-2.431586908166665,-0.619582913166669,False,0.6139
mp-568804,Hg36 Bi8 As16 Br48,108,Tetragonal,78,3684.3934082776245,6.276933992880889,34.11475378034837,0.0008024,-2.471231934537036,-0.660455434259261,True,1.1979
mp-1195481,Hg4 As8 Xe20 F88,120,Orthorhombic,33,2424.07540590598,3.904236290983755,20.200628382549834,-4.00609459,-3.2920929825,-1.560908309083334,True,2.1803
mp-1195247,Hg4 As4 F28,36,Monoclinic,14,534.0893349165092,5.080280513175504,14.835814858791922,-3.55750841,-11.57721345,-2.026376432222223,False,2.4936
mp-30284,Hg2 As2 O6,10,Trigonal,162,157.81998171998964,6.807764840336567,15.781998171998964,0.35074594000000003,-5.326915276999998,-1.362179759999999,True,1.235099999999999
mp-16585,Hg8 B32 O56,96,Orthorhombic,61,1052.8055350113582,4.489864570889362,10.966724323034981,0.07365636,-7.6227689971874995,-2.484188484201388,True,2.7564
mp-23177,Hg2 Br2,4,Tetragonal,139,126.95326347785603,7.3376805319879495,31.738315869464007,-0.9755173500000001,-1.662405962499999,-0.689096676250002,False,2.2557
mp-23292,Hg2 Br4,6,Orthorhombic,36,207.27383454880425,5.774534541006871,34.54563909146737,-1.73969353,-2.023291951666669,-0.8287702491666711,False,2.5527
mp-22897,Hg2 Cl2,4,Tetragonal,139,113.267339996862,6.920946901522058,28.3168349992155,-0.99028447,-28.3813745225,-0.621251812500002,False,2.7243
mp-22855,Hg4 Cl8,12,Orthorhombic,62,339.6929744266541,5.308672811812608,28.30774786888784,-1.65275638,-21.241047114166665,-0.683485675,True,2.8686
mp-706,Hg2 F2,4,Tetragonal,139,73.9382192262809,9.86323787350034,18.484554806570227,-1.1701719,-27.560985235,-1.314067998750001,False,1.7704
mp-8177,Hg1 F2,3,Cubic,225,42.88560780715456,9.238127499184847,14.295202602384853,-1.328695,-20.112465686666667,-1.5725115458333332,True,0.9687
mp-24426,Hg4 H8 Se4 O20,36,Monoclinic,14,462.46729141016084,5.192923248186426,12.846313650282246,-0.26431079,-5.0071051525,-1.080913883871528,True,1.4897
mp-24294,Hg4 H4 Cl4 O16,28,Orthorhombic,57,412.63635588635486,4.84594102755766,14.73701271022696,-0.40911261,-4.304102236428571,-0.6833557655357151,False,2.3817
mp-696272,Hg4 H4 N4 O16,28,Monoclinic,14,353.043733021669,5.260429790440405,12.608704750773894,-0.25678476,-5.423578927142857,-0.8757274641071431,False,1.5664
mp-23844,Hg4 H4 O4 F4,16,Orthorhombic,19,218.8777905264483,7.179832611246826,13.67986190790302,-1.05333521,-3.9740563687500003,-1.332393404687502,False,1.459099999999999
mp-22859,Hg2 I2,4,Tetragonal,139,151.3211478162347,7.187592340905009,37.83028695405868,0.57835375,-1.3604090299999991,-0.443566703750002,False,1.6513
mp-23192,Hg2 I4,6,Tetragonal,137,256.0028709572018,5.894833826436059,42.66714515953364,0.16554319,-1.683849816874996,-0.564617394374998,True,1.3324
mp-557250,Hg4 I4 N4 O12,24,Orthorhombic,62,541.6044021001806,4.776762654018852,22.566850087507518,-0.32414168,-4.920414488333334,-0.7511069195833351,True,1.9661
mp-19363,Hg2 Mo2 O8,12,Monoclinic,15,165.06995857909925,7.253532617816265,13.755829881591604,0.75607134,-6.6979259825,-1.5400649545833351,False,2.2557
mp-542289,Hg8 N8 O24,40,Monoclinic,4,611.8695774515091,5.7012030826059785,15.296739436287728,-1.24438467,-5.445975904999999,-0.7476093455,False,2.568699999999999
mp-1224,Hg4 O4,8,Orthorhombic,62,133.5742810249583,10.77019190675644,16.69678512811979,0.46310693,-3.26387400375,-0.635057482500004,False,1.1867
mp-22574,Hg4 P56 Pb4,64,Orthorhombic,62,1438.3368536218566,3.8856411367573402,22.47401333784151,4.24215829,-14.518967126875,-0.038841564322915,False,1.3483
mp-1190352,Hg2 P4 Pd2 O14,22,Monoclinic,15,315.8020830316429,5.057862671748778,14.35464013780195,1.31977366,-6.589951628181819,-1.9575672706168832,False,1.3365
mp-1195071,Hg4 P8 Xe20 F88,120,Orthorhombic,56,2358.577002738847,3.765128866420018,19.65480835615706,-3.8494219100000002,-3.522843087583333,-1.741968347976191,True,2.0719
mp-27178,Hg2 P2 S6,10,Triclinic,2,236.62949411143137,4.60007093169168,23.66294941114314,1.60936148,-4.112753571000002,-0.48470871792857306,False,1.7549000000000001
mp-7293,Hg4 P4 Se12,20,Monoclinic,15,536.7001893082713,5.797420480202423,26.835009465413567,1.30768617,-20.442503977,-0.18159127153273802,False,1.2066
mp-546862,Hg1 Pb2 Cl2 O2,7,Monoclinic,12,159.6876182370391,7.465152115547622,22.812516891005583,2.70593647,-4.403101022857142,-1.356247624642857,False,2.247799999999999
mp-35659,Hg1 Pb1 F6,8,Trigonal,148,126.93730150000889,6.825706549847083,15.86716268750111,-2.42651258,-17.40539493625,-1.854256394687503,True,1.3192
mp-1200258,Hg4 S8 O28,40,Monoclinic,14,558.4759922279786,4.480416788624371,13.961899805699465,-0.35281926,-5.863680814999999,-1.541468994249999,False,2.6024000000000003
mp-1106367,Hg4 S16,20,Orthorhombic,57,2224.979510828908,0.9817048101229011,111.2489755414454,-3.40215467,-3.5574351195,-0.184813058,True,1.047499999999999
mp-3228,Hg2 S2 O8,12,Orthorhombic,31,153.94550778114908,6.39970907379453,12.828792315095756,0.91787753,-5.5098578775,-1.4698786066666671,False,1.3525
mp-1199212,Hg4 Sb8 F52,64,Monoclinic,14,1037.7538482940522,4.423325188609056,16.214903879594566,-3.07235523,-4.3691035951562505,-2.278618883125001,False,0.20189999999999902
mp-1195399,Hg4 Sb8 Xe20 F88,120,Monoclinic,14,2583.234002562519,3.9045549516420532,21.526950021354324,-3.96918134,-3.339992863416666,-1.6448829428333331,False,2.2327
mp-559509,Hg4 Sb12 Xe4 F68,88,Monoclinic,14,1633.9634535211264,4.146911452199544,18.567766517285527,-3.22629171,-4.450969216022727,-2.393317384090909,True,2.5858
mp-1018722,Hg3 Se3,6,Trigonal,154,167.628586361131,8.307718381660244,27.938097726855165,1.0616717,-32.07660409,-0.23692071328125003,False,1.0432
mp-9228,Hg4 Se4 O12,20,Orthorhombic,62,305.0066542589892,7.133045455889164,15.250332712949461,0.50270345,-4.778405937000002,-1.048512630968753,False,2.5571
mp-10796,Hg2 Se2 O8,12,Orthorhombic,31,168.5864978164532,6.767733103486947,14.048874818037767,0.21520854,-4.897849080833329,-0.9649444916406221,False,0.8439999999999991
mp-1192364,Hg2 Te4 O4 F20,30,Monoclinic,15,529.4622554195934,4.2513635459215,17.64874184731978,-2.12412205,-4.482473726999999,-2.107091754722222,False,2.4788
mp-1224178,Ho2 Cu6 S6,14,Trigonal,148,241.40541429194994,6.215027479124213,17.243243877996424,5.20684125,-13.794232795,-1.004700057633925,False,1.4907
mp-1212366,Ho2 Zn6 P6,14,Hexagonal,194,268.56894455003777,5.615059223124635,19.18349603928841,4.07006088,-4.118617137857146,-0.600998441989797,False,0.38170000000000004
mp-2214312,Ho10 Te7 S10,27,Triclinic,2,748.6563081444706,6.350547895661803,27.72801141275817,5.24812165,-23.739975272222225,-1.996123415115739,False,1.9446999999999992
mp-677152,Ho10 Te7 S10,27,Triclinic,1,755.5736092720119,6.292408421783816,27.98420775081526,3.43708123,-6.061189828888889,-2.010688659320985,False,1.576999999999999
mp-1203269,Ho22 Sn20,42,Tetragonal,139,1101.6707320802623,9.047769749578851,26.23025552572053,5.78236895,-5.030350421190476,-0.712722199047615,False,0.014999999999999002
mp-557285,Ho11 Te16 Cl1 O48,76,Triclinic,2,1191.9975439424647,6.490684066200631,15.684178209769273,3.51195511,-6.964706716710526,-2.4881535660745593,False,2.8672
mp-1197586,Ho26 Zn116,142,Hexagonal,194,2475.8001120667427,7.965082201840525,17.435212056808048,3.25156581,-2.18946488584507,-0.318549922112675,True,0.047900000000000005
mp-541349,Ho4 Au10 F42,56,Triclinic,2,892.7302557949142,6.375048406894599,15.941611710623468,-1.94789173,-4.5775043405357145,-2.229087597499999,True,1.6192000000000002
mp-9006,Ho2 C1 F2,5,Trigonal,164,71.62661244213267,8.806585649485262,14.325322488426533,3.66446441,-7.052530507999999,-2.602184673499997,False,1.1355
mp-6942,Ho4 Cd2 S8,14,Cubic,227,351.359857781124,5.392705261974087,25.097132698651713,1.79630954,-5.759579168571428,-1.944035255714283,True,1.1172
mp-1232270,Ho4 Mg2 S8,14,Cubic,227,340.6490024742933,4.703296449605548,24.332071605306663,1.988707799999999,-6.07599376785714,-2.164669879999994,True,1.9659
mp-754918,Ho4 Mn4 O14,22,Cubic,227,240.00683178957087,7.634561179344457,10.909401444980494,3.68872111,-8.553677861363637,-2.9032127205329132,False,1.1659
mp-1212340,Ho4 Mn2 Ni2 O12,20,Monoclinic,14,223.2150561184645,8.026713976210527,11.160752805923225,4.98780077,-8.243344822000001,-2.8608171287931032,False,1.8696000000000002
mp-16811,Ho8 Mo4 O24,36,Monoclinic,15,450.69225879573884,7.690075459218735,12.519229410992745,2.72903403,-8.716983013055556,-3.191563560833332,False,2.1491
mp-1178175,Ho4 Pb4 O14,22,Cubic,227,300.21243775510874,9.472274235404445,13.646019897959489,4.79137491,-7.206019065454546,-2.546348146818181,True,1.1706
mp-755635,Ho4 Pt4 O14,22,Cubic,227,262.3022141613473,10.534482839981917,11.922827916424877,3.74449562,-7.555180050454546,-2.466693449999999,False,1.506899999999999
mp-878,Ho12 S18,30,Monoclinic,11,702.0518684032684,6.046408249359246,23.401728946775613,3.17920689,-20.349370451333336,-2.375833436020832,True,1.4612999999999992
mp-9824,Ho8 Se12,20,Orthorhombic,70,569.2317026956865,6.61308896811743,28.461585134784325,1.814991679999999,-23.9244038915,-2.184930186937501,False,1.315
mp-13974,Ho2 Se1 O2,5,Trigonal,164,84.54559492492947,8.658025318607043,16.909118984985895,3.592478449999999,-8.01235884,-3.494920356468746,False,2.1517
mp-3884,Ho4 Sn4 O14,22,Cubic,227,278.614901156187,8.09694715508882,12.66431368891759,4.18808991,-7.7410830809090925,-3.027425837727271,True,2.7013
mp-1189209,Ho8 Te12,20,Orthorhombic,70,693.9285991421946,6.821455898552266,34.69642995710973,3.790564889999999,-30.068521443499996,-1.6656492915,True,0.530799999999999
mp-1178173,Ho2 Te1 O2,5,Tetragonal,139,93.8216655812134,8.662887368297849,18.76433311624268,4.97206579,-7.776108981999999,-3.32919161533333,False,0.7161999999999991
mp-1223956,Ho2 Te1 S2,5,Orthorhombic,71,147.83697694312428,5.858626524987115,29.567395388624856,2.52077362,-6.255145909999999,-2.132069118333329,False,1.7469000000000001
mp-1189310,Ho6 Cu6 Sb8,20,Cubic,220,436.96729603962126,8.91110401213796,21.848364801981063,6.90686917,-5.0396480855,-0.7789817489999981,False,0.3143
mp-555509,Ho6 Cu2 Ge2 S14,24,Hexagonal,173,483.30240969501546,5.878216867549206,20.137600403958977,4.25197066,-6.000614377916666,-1.710298553541663,False,1.759199999999999
mp-17486,Ho6 Cu2 Si2 S14,24,Hexagonal,173,479.2007486968816,5.619747899881113,19.966697862370065,4.83144519,-6.156196909999999,-1.7990235710416642,False,1.822499999999999
mp-1197194,Ho24 Ga16,40,Tetragonal,140,952.4089457439591,8.846412073451917,23.810223643598977,3.14692053,-4.5018289105000004,-0.5319828224999961,True,0.027600000000000003
mp-1189051,Ho6 Ga2 S12,20,Orthorhombic,36,449.9437709398892,5.586780733151461,22.497188546994458,3.10224934,-6.186346966499997,-2.021217784249994,False,2.094099999999999
mp-769345,Ho12 Re4 O32,48,Monoclinic,14,570.2338920430942,9.423254320987727,11.879872750897796,2.4447361,-8.807055014374999,-3.321651627499998,False,1.7553
mp-1106363,Ho6 Sb8 Au6,20,Cubic,220,478.77683663420584,10.909386227423822,23.938841831710292,6.18477686,-36.2365951905,-0.914177678999999,False,0.5575999999999991
mp-1212301,Ho6 Sb2 O14,22,Orthorhombic,20,296.1203188505098,8.170870283545701,13.460014493204993,5.89074429,-8.212924027727272,-3.434945239545452,False,2.7558
mp-607806,Ho12 Se12 N4,28,Monoclinic,15,669.1820964704139,7.401434629239917,23.899360588229065,2.59754629,-23.69367828214286,-2.16404069513393,True,1.5205000000000002
mp-1192541,Ho12 Te12 N4,28,Monoclinic,14,782.742440450134,7.565874390394519,27.95508715893336,4.21904022,-28.067947517857142,-1.7787396112500011,True,1.136199999999999
mp-1154,Ho16 C28,44,Monoclinic,14,620.8304193180988,7.957745471521479,14.109782257229519,3.94912141,-7.832266037954543,-0.28759546454545004,True,0.7510000000000001
mp-1212299,Ho16 Cd4 Ni4,24,Cubic,216,595.8925541473844,9.260854089029504,24.828856422807686,3.49135521,-4.4729770579166654,-0.28449960291666004,False,0.015600000000000001
mp-1212308,Ho16 Mg4 Ni4,24,Cubic,216,613.3903692088112,8.042611074989367,25.557932050367132,3.4596147,-4.489972122500002,-0.18975136333333,True,0.036399999999999
mp-1200540,Ho32 Ru8 Br40,80,Tetragonal,134,2405.129844055443,6.408775691237851,30.064123050693034,3.578471,-5.256772124375,-1.671786816874997,False,0.25070000000000003
mp-1193486,Ho8 Zn10 Ge12,30,Orthorhombic,36,601.5344335857332,7.854224704141776,20.051147786191105,3.80295354,-4.033354046333334,-0.538180510333332,False,0.0043
mp-1202615,Ho40 Ir8 Br72,120,Tetragonal,88,3696.462062073666,6.23883791514992,30.803850517280548,2.47367399,-5.108525617333331,-2.004568929333329,True,0.730599999999999
mp-1212353,Ho12 Al86 Mo8,106,Hexagonal,193,1861.0712172901196,4.521111846265776,17.55727563481245,7.40630873,-4.691734014433963,-0.313838959339621,True,0.029999999999999003
mp-1199465,Ho6 H40 N8 O49,103,Triclinic,2,1020.1961669227951,3.134761411619397,9.904817154590244,-0.5714017,-6.156557250873787,-1.568702439757281,False,2.9414
mp-753766,Ho6 Re1 O12,19,Trigonal,148,251.44528640020425,9.032799990636441,13.233962442116013,3.65277012,-8.869479289473668,-3.637388602236824,False,0.0359
mp-1212377,Ho12 Ta8 Al86,106,Hexagonal,193,1861.1240959129905,5.127751767795901,17.557774489745192,7.11874476,-13.186019438018867,-0.33440391857232404,False,0.013200000000000002
mp-1212285,Ho14 C4 I24 N2,44,Triclinic,2,1578.3925280389383,5.713430220811617,35.87255745543042,2.4744702,-5.049070434090909,-1.5369105993181802,True,1.261299999999999
mp-1188549,Ho7 Pt1 I12,20,Trigonal,148,743.451287435775,6.415773734203849,37.17256437178875,4.56741746,-4.325018258999995,-1.497866211249993,False,0.0819
mp-1191834,Ho16 Ga6 Co2,24,Hexagonal,186,589.7291815159775,8.94030740984115,24.572049229832402,3.53861709,-4.813902634166666,-0.39730759187499604,True,0.007199999999999001
mp-1192267,Ho16 In6 Co2,24,Hexagonal,186,637.175549310766,8.979710901879294,26.548981221281917,4.46754768,-4.682733211666668,-0.33336873916666304,True,0.0032
mp-18262,Ho8 Ag8 S16,32,Tetragonal,92,715.8671470365542,6.2523664892603374,22.37084834489232,3.04053387,-5.494452331249999,-1.565118261666663,True,2.0621
mp-12955,Ho4 Ag4 Se8,16,Orthorhombic,19,393.0148708206452,7.279367599243141,24.563429426290327,2.81108575,-5.04091782875,-1.4328078040885401,True,1.271199999999999
mp-12904,Ho2 Ag2 Te4,8,Tetragonal,113,235.9161346413421,7.432829220433802,29.489516830167762,4.36647571,-4.543874403749999,-1.112067171249997,False,0.8999
mp-1102733,Ho4 As4 S4,12,Orthorhombic,62,247.71388224452804,7.291132243994712,20.642823520377338,5.27483688,-6.172341378333333,-1.7036208566666642,True,0.0177
mp-2011092,Ho4 As4 S4,12,Orthorhombic,62,245.89602012428767,7.345034186422742,20.491335010357307,5.50088416,-20.315427240833333,-1.7741359126041631,False,0.46839999999999904
mp-1212091,Ho4 As4 Se4,12,Orthorhombic,62,265.1439945864605,7.986598359633938,22.095332882205042,4.37259812,-22.275298508333336,-1.6418201305208342,False,0.21030000000000001
mp-1191115,Ho4 B16 Mo4,24,Orthorhombic,55,253.32349530756423,7.973894540802423,10.555145637815176,6.45062632,-7.657834073333333,-0.6310179636111091,False,0.5762
mp-976384,Ho4 B16 W4,24,Orthorhombic,55,252.31081267748962,10.319892138094005,10.512950528228734,6.53438946,-7.977559918333341,-0.598663788611117,False,0.2705
mp-546625,Ho1 Bi2 Br1 O4,8,Tetragonal,123,142.46529738069583,8.471310045810544,17.80816217258698,3.54824264,-6.644518402499999,-2.418701072499999,False,1.366499999999999