material_id,composition,nsites,crystal_system,space_group,volume,density,density_atomic,efermi,energy_per_atom,formation_energy_per_atom,is_gap_direct,band_gap
mp-1200852,Na2 Ti4 As6 O24,36,Trigonal,167,530.5743938905508,3.351792862093251,14.738177608070856,0.16136957,-7.383901348055556,-2.355089988641444,True,2.378
mp-6761,Na2 Ti4 P6 O24,36,Trigonal,167,472.0046186622634,2.840041817178361,13.111239407285094,1.02946266,-8.173157188055555,-3.020120663165252,False,2.4429
mp-560591,Na2 Ti4 Al10 O24,40,Orthorhombic,55,405.4487534145941,3.650160422538417,10.136218835364852,3.65586201,-8.1252676145,-3.3634618134023,False,2.7190000000000003
mp-1201259,Na4 Ti4 As4 O20,32,Monoclinic,14,403.6675262363508,3.715025822968669,12.614610194885962,1.15750483,-7.3547171221875,-2.523824578089081,False,2.9036
mp-1180119,Na1 Ti1 Cu3 Se4,9,Cubic,215,204.79912466544855,4.6811085763281906,22.75545829616095,2.89912127,-4.837538745555555,-0.8910411104541831,False,1.3708
mp-505171,Na4 Ti4 Cu4 S12,24,Orthorhombic,62,438.81768268601184,3.490439147451061,18.28407011191716,4.41427555,-5.5892874416666665,-1.2973710803687721,False,0.155999999999999
mp-27264,Na4 Ti4 F16,24,Orthorhombic,60,312.97999015929736,3.116503342783847,13.040832923304057,2.77538663,-6.264287071666666,-3.448850022452107,False,0.201099999999999
mp-28566,Na8 Ti8 Se32,48,Monoclinic,14,1188.5736982152232,4.32198756059751,24.761952046150483,2.14092493,-5.042936165833333,-1.172793048181273,False,0.9939999999999991
mp-18953,Na2 V2 O4 F4,12,Monoclinic,4,161.39693397586723,2.961595290726615,13.449744497988936,-0.96993189,-6.721774391666666,-2.696898790229884,False,2.1974
mp-554124,Na4 V4 S8 O32,48,Monoclinic,12,627.5234223766155,2.816131767562633,13.073404632846156,1.37065951,-6.9973345885416665,-2.140165086573276,False,1.6873
mp-19287,Na4 V4 Si8 O24,40,Monoclinic,15,447.42967848101415,3.356466424134577,11.185741962025354,5.36429859,-8.04122801675,-2.944825122887931,False,0.0673
mp-752972,Na2 V6 O16,24,Monoclinic,11,297.3357115178601,3.393386485377821,12.388987979910837,-0.02251572,-8.022206525833333,-2.340779273448275,False,1.9032
mp-776555,Na4 V12 P8 O52,76,Orthorhombic,33,1046.0925807252586,2.8303113264457602,13.764376062174454,0.64830725,-7.933890259473685,-2.473475569771844,False,2.1674
mp-17507,Na4 V4 As4 O20,32,Monoclinic,14,396.46339368257054,3.8340402103302633,12.38948105258033,1.90530659,-7.137655243125,-2.158210942359914,False,1.5064000000000002
mp-1120756,Na4 V4 F12,20,Orthorhombic,62,240.02797524993014,3.623053234628042,12.001398762496507,4.38679154,-8.424366318,-3.017998288,True,2.020699999999999
mp-1029711,Na4 V4 N8,16,Orthorhombic,64,233.06854205386756,2.905293086390553,14.566783878366723,1.688621009999999,-7.593011284375001,-0.8174656997198291,False,0.9301
mp-752810,Na4 V4 P8 O28,44,Monoclinic,4,561.1384833484066,2.934073908479117,12.753147348827422,1.90053069,-7.791763511363637,-2.710645244605911,False,2.1604
mp-19291,Na4 V4 P4 O20,32,Monoclinic,14,347.3288897453486,3.535980512985785,10.854027804542143,2.38101248,-7.702633466562499,-2.63002029169027,True,1.2667000000000002
mp-1209918,Na1 Y1 Pd6 O8,16,Cubic,200,198.33765937986672,7.354304202737901,12.39610371124167,3.56803956,-6.339524685624999,-1.432412736961206,False,0.031099999999999003
mp-10226,Na1 Y1 S2,4,Trigonal,166,90.34813763353296,3.235234562581743,22.58703440838324,2.2075325,-12.1217575325,-2.13481260890625,False,2.263499999999999
mp-999448,Na1 Y1 Se2,4,Trigonal,166,101.94114702976469,4.395078823887412,25.485286757441177,1.9067942100000002,-15.1226794025,-1.99745390453125,False,1.8434
mp-13097,Na2 Zn2 As2,6,Tetragonal,129,120.67129330811763,4.494852854000774,20.111882218019606,2.79003367,-2.838819916666666,-0.414957609626436,True,0.35759999999999903
mp-4824,Na2 Zn2 P2,6,Tetragonal,129,110.97209835409217,3.572479111584915,18.49534972568203,3.23608079,-7.677572828333333,-0.518619665992063,True,0.9102000000000001
mp-559126,Na1 Zr2 Cu1 F11,15,Triclinic,2,223.51728664281075,3.550873254478511,14.90115244285405,-1.19950031,-6.373420324666666,-3.467506669091953,False,0.8712000000000001
mp-554702,Na1 Zr2 Ni1 F11,15,Monoclinic,12,209.46799614954088,3.75056637586831,13.964533076636059,-1.14166127,-6.595477526000011,-3.577501869758632,False,1.8738000000000001
mp-16291,Na1 Zr2 Pd1 F11,15,Monoclinic,12,235.551181750969,3.671709479722932,15.703412116731267,-1.1119361,-6.362708324,-3.384749659091953,False,1.331899999999999
mp-558441,Na1 Zr2 V1 F11,15,Monoclinic,12,229.15469014930537,3.372181864945113,15.276979343287024,0.89795185,-6.965480968,-3.727254019091953,False,2.163
mp-9107,Na2 Zr2 Cu2 S6,12,Orthorhombic,63,238.5973729995436,3.813223851980127,19.883114416628633,4.20033413,-5.836170265,-1.435552468146551,False,0.543899999999999
mp-505172,Na4 Zr4 Cu4 Se12,24,Orthorhombic,62,539.161986220672,5.108116321640272,22.46508275919467,3.48096715,-5.367072655833333,-1.287678903901759,False,0.2968
mp-505173,Na4 Zr4 Cu4 Te12,24,Orthorhombic,62,664.7936289636764,5.600723926941135,27.699734540153184,4.68550279,-4.835246290416667,-0.9321553306465521,True,0.004899999999999001
mp-559923,Nb4 P8 S32,44,Orthorhombic,64,1236.9652577349602,2.208962407958344,28.11284676670364,1.477715659999999,-5.714928288863636,-0.802280231525974,False,1.2678
mp-1079487,Nb2 S4 Br4,10,Triclinic,2,260.3449535755908,4.041810404209689,26.03449535755908,2.0684847,-5.593272281999999,-1.262888832999999,False,1.4999999999999991
mp-27362,Nb2 S4 Cl4,10,Monoclinic,12,232.16074394190338,3.260734097393324,23.216074394190336,2.2955644,-5.872545882,-1.457523926999999,True,1.510199999999998
mp-27361,Nb2 Se4 Cl4,10,Triclinic,2,253.07065098260307,4.222134679828382,25.307065098260306,2.183147,-14.187188711,-1.054774129624999,False,0.9933999999999991
mp-1205627,Nb2 Se4 I4,10,Monoclinic,12,326.40210403792184,5.134566553828563,32.64021040379218,2.68959173,-4.939992007000001,-0.9117613619375001,False,0.959299999999999
mp-1204878,Nb20 Se80 I6,106,Monoclinic,13,3055.2825418281404,4.856888168029956,28.823420205925853,2.71478345,-5.570509678113208,-0.9399144450707541,False,0.12890000000000001
mp-676330,Nb12 Br17 F13,42,Triclinic,1,997.3619370551306,4.528985641651053,23.74671278702692,1.55380874,-6.204287488571429,-2.063243858809524,False,0.12210000000000001
mp-504552,Nb8 Co4 O24,36,Orthorhombic,60,403.98453665216084,5.602352969365906,11.221792684782246,2.39606041,-9.004467136944454,-2.668490155833343,False,1.7676
mp-466,Nb6 F15,21,Cubic,229,280.3857585884136,4.989061887273012,13.351702789924456,2.44114787,-12.19565115095238,-2.89589557238095,False,0.15130000000000002
mp-22366,Nb8 Fe4 O24,36,Orthorhombic,60,415.9281013711032,5.392161980224028,11.553558371419534,2.28404452,-9.225335676111111,-2.7408470850000013,False,2.0862
mp-29073,Nb8 Ge4 Te16,28,Monoclinic,14,776.468225674052,6.577011149863456,27.73100805978757,5.06454707,-6.063287284285715,-0.7205927830952371,False,0.1734
mp-22198,Nb8 Ni4 O24,36,Orthorhombic,60,406.727829219363,5.560650268190626,11.297995256093417,2.3237486,-8.844885038888888,-2.659272506666665,False,2.998199999999999
mp-581967,Nb28 O70,98,Monoclinic,3,1436.934978242596,4.300420662212256,14.662601818801999,0.4008034,-9.454550289693879,-3.034205274693879,False,1.7731
mp-648932,Nb8 P4 S40,52,Orthorhombic,18,1399.374123847296,2.550952816377832,26.91104084321723,3.12968436,-6.118196437500003,-0.9642211082417611,False,1.5194
mp-504898,Nb4 Pd6 Se16,26,Orthorhombic,55,607.1882472927358,6.21758532205357,23.353394126643686,2.93733311,-18.626786433846153,-0.71586397403846,False,0.30820000000000003
mp-1203143,Nb8 S12 O56,76,Orthorhombic,33,1092.518503088352,3.07631111996516,14.375243461688841,2.42638067,-7.55748096263158,-2.194894496710526,False,2.8957
mp-573340,Nb4 Se34 Cl24,62,Triclinic,2,1877.174826833054,3.456233483316171,30.277013336017003,0.09278605000000001,-12.404599547741936,-0.578988580131049,False,1.3168
mp-29193,Nb4 Se8 O26,38,Monoclinic,7,554.4151869704924,4.250941197822965,14.589873341328747,0.7102111,-7.050556294736843,-1.865832660230264,False,2.427
mp-541106,Nb4 Se18,22,Triclinic,2,613.4361653551142,4.8532998652913,27.883462061596102,2.29007432,-16.78771340681818,-0.581150554232953,False,0.7746999999999991
mp-29072,Nb8 Si4 Te16,28,Monoclinic,14,759.658864413679,6.332977145096271,27.130673729059964,5.57822005,-6.195107845357141,-0.737800462023806,False,0.2534
mp-3324,Nb4 Sn2 O12,18,Monoclinic,15,239.29871614672794,5.558556458731841,13.294373119262664,3.39422276,-8.735033227222253,-2.7461501200000322,False,1.7399
mp-27322,Nb4 Te6 O22,32,Orthorhombic,18,499.3293140730171,4.952433526585239,15.604041064781784,2.19715256,-7.42627390125,-2.1725177253125,True,2.5672
mp-28745,Nb8 Te24 I4,36,Monoclinic,14,1191.7018303795612,6.01018758537138,33.10282862165448,4.44094802,-5.21697888638889,-0.7073724358333341,False,0.7160000000000001
mp-2713968,Nb4 Zn8 S18 O72,102,Trigonal,158,1490.1727436469823,2.9240199927457073,14.609536702421396,-0.25182293,-6.697828672941178,-1.979918539460785,True,2.3571
mp-1220763,Nb3 Al1 P6 O24,34,Trigonal,146,486.7028474750602,2.987140650396941,14.314789631619417,0.05917993,-8.363194661470587,-2.913388890231092,False,2.7708999999999993
mp-27771,Nb6 Br16,22,Trigonal,166,606.5489387185947,5.026119516160572,27.57040630539067,2.71126035,-5.263008567727274,-1.3176006222727281,False,0.030699999999999002
mp-29924,Nb12 Cl20 O8,40,Orthorhombic,58,810.0145801304121,4.001482223067458,20.250364503260304,3.18026956,-7.024643133250001,-2.080388020250001,False,0.8969
mp-27880,Nb12 Cl28,40,Orthorhombic,64,956.1151920469242,3.66031904337068,23.902879801173107,2.22883442,-13.145925360000001,-1.41899573675,False,0.9765
mp-29950,Nb6 Cl16,22,Trigonal,164,511.48231937551543,3.651319771696544,23.2491963352507,3.00105071,-12.674365419999999,-1.45420768090909,False,0.1451
mp-29698,Nb12 Cl4 O28,44,Orthorhombic,62,674.1593495685532,4.1988204346959614,15.3218033992853,0.44537283,-8.978419364318183,-2.906766186590912,True,2.0588
mp-771766,Nb3 Co1 P6 O24,34,Trigonal,146,483.297995760436,3.117966238780818,14.21464693413047,0.12524411,-8.258749189117646,-2.709301038760503,False,2.1295
mp-774426,Nb3 Cr1 P6 O24,34,Trigonal,146,493.49352353160384,3.030206974336296,14.514515397988347,0.11786822,-8.452265900588236,-2.828710963466386,False,2.6167
mp-859878,Nb3 Fe1 P6 O24,34,Trigonal,146,495.4488251183608,3.03114810142082,14.572024268187082,-0.046884590000000004,-8.370244728823529,-2.78148468170168,False,2.640599999999999
mp-2714005,Nb9 Ga3 P18 O72,102,Trigonal,143,1489.74793702794,3.070634344660359,14.60537193164647,0.6259113900000001,-8.235937234215687,-2.807233810255603,True,1.7787000000000002
mp-27772,Nb6 I16,22,Trigonal,166,739.8199210400187,5.808609908335435,33.62817822909176,4.40437203,-4.661118035454549,-0.797843850000002,False,0.06770000000000001
mp-28585,Nb24 I8 Cl48,80,Cubic,205,2074.864032155967,3.958930836898938,25.935800401949585,2.71105572,-5.865301565624999,-1.573383112124999,False,1.0733
mp-2713927,Nb9 In3 P18 O72,102,Trigonal,143,1544.5274486950061,3.107175085819767,15.142425967598099,0.587610299999999,-8.21319190382353,-2.792397958662466,True,1.8623999999999992
mp-1210229,Nb6 In4 Cl18,28,Monoclinic,12,760.7156306568838,3.612344319109087,27.168415380602994,2.57569865,-5.289993548571428,-1.5429115623809522,False,0.9687000000000001
mp-2752758,Nb6 In4 Cl18,28,Monoclinic,12,736.4957270723295,3.7311374470350582,26.303418824011768,2.8391292100000003,-13.775307162857143,-1.294496106607141,True,1.0641
mp-29057,Nb3 S1 Br7,11,Trigonal,156,292.25602823227837,4.943799481338981,26.568729839298033,1.852211979999999,-5.557823389090908,-1.385014258863635,True,0.7444000000000001
mp-541158,Nb12 S4 I28,44,Monoclinic,14,1603.42032444349,4.96732637480805,36.441371010079315,2.8266226,-5.014137432045453,-0.9131953418181801,False,0.5787
mp-1220893,Nb6 Sb2 P12 O48,68,Monoclinic,7,1006.4654889801036,3.201765417344551,14.800963073236817,1.20522121,-8.218514483088235,-2.757431493907562,False,1.6892
mp-569571,Nb6 Sb4 Te10,20,Cubic,217,486.25819487478583,7.924277426581994,24.31290974373929,7.49622658,-6.072731759499999,-0.644887052833331,False,0.844599999999999
mp-567731,Nb12 Se40 Br12,64,Monoclinic,11,1851.857219032065,4.69158590840955,28.935269047376014,1.16337932,-5.429320049843749,-1.043453205996092,False,1.246999999999999
mp-571061,Nb12 Se40 Cl12,64,Monoclinic,11,1758.601582147875,4.436704622473163,27.478149721060547,1.53650955,-15.5431683703125,-0.8072219358203121,False,1.1681
mp-23410,Nb12 Se48 I4,64,Tetragonal,128,1829.1994796189874,4.9135107508191105,28.58124186904668,2.58057094,-5.5483857589062495,-0.9372066672265611,True,0.0718
mp-540615,Nb6 Se10 Cl14,30,Monoclinic,11,812.3540134497557,3.768067762158437,27.078467114991856,1.52374833,-13.708468094666667,-1.119994935520835,False,1.0202
mp-1199992,Nb12 Te16 Cl4 O60,92,Monoclinic,15,1493.5811270696702,4.73425554405765,16.23457746814859,2.16293574,-7.358209984673913,-2.186684046920291,True,2.3912
mp-28938,Nb6 Te2 Cl14,22,Trigonal,164,555.3937859434598,3.913642801488392,25.24517208833908,2.52881489,-5.846736029090909,-1.6297341551515152,True,0.7027000000000001
mp-29689,Nb6 Te2 I14,22,Hexagonal,186,747.0171636989608,5.755738210780495,33.955325622680036,3.75185347,-4.833280822727276,-0.8227981574242461,False,0.5137
mp-1220713,Nb8 P4 S42,54,Monoclinic,5,1335.347045363955,2.753012968051018,24.728648988221387,2.77422325,-6.053343380740739,-0.936983450066136,True,1.192399999999999
mp-1232409,Nb16 Si4 Te16,36,Orthorhombic,55,1015.1342173399545,5.9549757178446825,28.198172703887625,4.22140225,-7.298208146111114,-0.8089012835185211,True,0.16920000000000002
mp-654301,Nb10 P14 O60,84,Monoclinic,15,1209.9694774618004,3.187574990446983,14.40439854121191,-0.00250206,-8.499474911666667,-2.86010181577381,False,2.585
mp-2713821,Nb10 Zn2 P18 O72,102,Trigonal,158,1519.4666077032011,3.026483724045337,14.8967314480706,0.2132123,-8.273314954313726,-2.80993992062325,True,2.3561
mp-696500,Nb24 H4 I44,72,Orthorhombic,56,2553.625951421145,5.083516471739863,35.46702710307146,3.18567585,-5.215582037083333,-0.728518956875,True,0.213899999999999
mp-1210167,Nb12 H2 S2 I18,34,Triclinic,2,1071.5909567728115,5.369838935914274,31.51738108155328,3.8363982,-5.611130785294118,-0.795985504044117,False,0.030499999999999004
mp-651907,Nb24 In4 Cl60,88,Orthorhombic,51,2343.843491516554,3.412129173072158,26.634585130869933,2.20710467,-5.780793637386363,-1.640105183598485,False,0.8771
mp-583476,Nb28 S8 I76,112,Monoclinic,14,4835.398546588455,4.293569440516843,43.17320130882549,1.85851231,-4.748770949732142,-0.8936961604464281,False,0.4354
mp-1220584,Nb9 As1 O25,35,Monoclinic,5,486.3552192972495,4.476302376623751,13.895863408492843,0.21815041000000002,-9.171183418,-2.906015046071429,False,2.2043
mp-1220604,Nb9 P1 O25,35,Monoclinic,5,481.53343366280143,4.369573896722297,13.75809810465147,0.40499463,-9.301881161428573,-3.015417046846941,False,2.1273
mp-774246,Nb9 V1 O25,35,Tetragonal,82,488.49623689321425,4.37516805604354,13.95703533980612,1.09949067,-9.36211575,-2.970839276999999,False,2.0136
mp-997394,Nb2 Ag2 F12,16,Tetragonal,132,234.00062383274624,4.467334910555683,14.62503898954664,-1.36305001,-10.825351484375,-2.719586547499998,False,2.8973
mp-1198176,Nb4 Al8 Se8 Cl32,52,Monoclinic,14,1594.293694775876,2.451451790082188,30.65949413030531,0.28685546,-4.776839148846154,-1.748175913822116,False,1.9186
mp-1105368,Nb2 Al2 Br16,20,Orthorhombic,63,690.7587739473224,3.649749604673546,34.53793869736612,-1.31661452,-4.1020786975,-1.407833382499999,False,1.5329000000000002
mp-865280,Nb1 Al1 Fe2,4,Cubic,225,51.074002221711446,7.529156989262648,12.768500555427861,6.75348945,-8.0724849275,-0.375754104999999,True,0.32070000000000004
mp-570225,Nb2 As2 P2 Cl26,32,Orthorhombic,36,1052.8868465094718,2.080835661679978,32.90271395342099,-1.2325940100000001,-4.154719333125,-1.3910969895089291,True,2.4397
mp-8615,Nb2 B2 O8,12,Tetragonal,141,108.63133602292216,5.127383801765492,9.052611335243514,3.26847026,-9.050229218333333,-2.954805746527777,False,2.458899999999999
mp-550070,Nb2 Br4 O2,8,Monoclinic,5,192.61378741680204,4.633206536333692,24.076723427100255,1.15727205,-6.556403996249999,-1.975614217499999,False,0.9038
mp-1220556,Nb4 Br12 O4,20,Monoclinic,14,561.5928537936711,4.123225137861524,28.079642689683556,1.1034117,-5.811502866,-1.8194817360000002,False,1.9457
mp-1080428,Nb2 Br8,10,Monoclinic,12,310.2093177994072,4.416434249597641,31.020931779940717,0.18029491,-4.656139540000007,-1.3263213040000061,False,0.8728
mp-28601,Nb8 Br40,48,Orthorhombic,62,1599.9079524719216,4.08870142885932,33.33141567649837,-1.2422381200000001,-4.365852622291666,-1.318179669791667,True,1.565
mp-1025567,Nb2 Cl4 O2,8,Monoclinic,5,172.50529083906667,3.461742928261133,21.563161354883334,1.1729129,-6.92200413625,-2.235416225,False,0.9093
mp-556422,Nb4 Cl12 O4,20,Tetragonal,113,494.8461782771093,2.889427806415289,24.742308913855464,-1.441437799999999,-6.248637615,-2.129658726,False,2.8075
mp-31040,Nb2 Cl8,10,Monoclinic,12,264.77104459749734,2.944121327402491,26.477104459749732,0.10127967,-11.281181436,-1.412415387999999,False,1.0797
mp-707060,Nb4 Cl16 F4,24,Triclinic,2,664.1786515631456,2.537309077093259,27.674110481797737,-1.9923365999999991,-10.50042269625,-1.755446331249999,False,2.5076
mp-23307,Nb6 Cl30,36,Monoclinic,12,1035.3694155376024,2.599826445139612,28.760261542711177,-1.84891587,-10.620253230555555,-1.370875040972222,False,2.2227
mp-1094088,Nb1 Co1 Sn1,3,Cubic,216,52.46585053017647,8.562867735864295,17.488616843392155,6.57654431,-7.394681213333333,-0.313250008333332,False,0.970399999999999
mp-1220452,Nb1 Cu3 Se2 S2,8,Orthorhombic,35,177.19027738207214,4.738178822493062,22.148784672759017,2.88166934,-5.5104838725,-0.802050479960937,False,1.4624000000000001
mp-5621,Nb1 Cu3 S4,8,Cubic,215,164.67953723815498,4.1524118433614134,20.584942154769372,3.03951651,-5.71631260375,-0.8472671887499991,False,1.6574
mp-4043,Nb1 Cu3 Se4,8,Cubic,215,181.82844767762958,5.473847418333714,22.728555959703698,2.72415191,-14.911094726249999,-0.596006779531249,False,1.3604
mp-991676,Nb1 Cu3 Te4,8,Cubic,215,212.9776307986598,6.190207181635206,26.622203849832474,4.55881623,-4.87404854,-0.502529962083333,False,0.9169
mp-31761,Nb2 Fe2 O8,12,Monoclinic,12,155.77976990612953,4.535608094455163,12.98164749217746,1.00472623,-8.88775719,-2.493895478333334,False,1.8298
mp-9437,Nb1 Fe1 Sb1,3,Cubic,216,52.43169450533423,8.567236262108185,17.477231501778075,7.27691586,-7.968846716666668,-0.402070886666668,False,0.513799999999999
mp-977410,Nb1 Ga1 Fe2,4,Cubic,225,51.00945410295019,8.930071007937828,12.752363525737547,5.99525996,-7.775199172499999,-0.257838301874999,False,0.09050000000000001
mp-549720,Nb2 I4 O2,8,Monoclinic,5,228.5338164569104,5.271009533107264,28.5667270571138,2.898376899999999,-6.146197130000001,-1.621874311250001,False,0.842599999999999
mp-546285,Nb2 I6 O2,10,Monoclinic,5,336.66607214499976,4.829900367280732,33.666607214499976,1.862461699999999,-5.329622354999995,-1.405361576999995,False,0.8196000000000001
mp-570044,Nb4 I16,20,Orthorhombic,36,776.7787442897354,5.135022045861266,38.83893721448677,2.4138527,-4.006396015500004,-0.7669249155000041,False,0.47750000000000004
mp-569578,Nb2 I10,12,Triclinic,2,499.99546166591665,4.831739153421856,41.66628847215972,0.98107186,-3.700696750000001,-0.747135397500001,False,0.9400000000000001
mp-557685,Nb4 I4 O8,16,Orthorhombic,62,322.93955114583247,5.179170648974487,20.18372194661453,2.67976717,-7.736413205625,-2.356103289375,False,1.0412
mp-7596,Nb4 N4 O4,12,Monoclinic,14,132.11468427885,6.179509141675791,11.0095570232375,4.02409913,-9.771813071666665,-1.975965141666666,False,1.5556
mp-21600,Nb4 Ni8 B4 O24,40,Orthorhombic,62,404.9871910923904,5.200736346364042,10.12467977730976,3.39364543,-8.099561877,-2.2966882569166662,False,2.7318
mp-557057,Nb8 O16,24,Tetragonal,88,288.6331088235784,5.7487495278992515,12.026379534315767,4.28043332,-9.563370544166666,-2.897628194166666,False,0.28240000000000004
mp-752467,Nb2 O4 F2,8,Monoclinic,9,117.31099616863546,4.073915140637288,14.663874521079432,-0.84700796,-8.6453698325,-3.16759997625,False,2.2079