material_id,composition,nsites,crystal_system,space_group,volume,density,density_atomic,efermi,energy_per_atom,formation_energy_per_atom,is_gap_direct,band_gap
mp-1221206,Na8 Ca4 Si2 As8,22,Monoclinic,9,556.684681877847,2.982233502787434,25.30384917626577,3.06312385,-3.716867620909091,-0.6728775268652041,True,0.631899999999999
mp-1221207,Na8 Ca4 Si2 P8,22,Monoclinic,9,508.601557652865,2.116287057041327,23.118252620584773,3.787586499999999,-3.9932318490909093,-0.6782050303716961,True,1.0094
mp-556413,Na8 Cd4 Si6 O20,38,Monoclinic,15,524.7674370316156,3.550581784089792,13.809669395568832,1.07983312,-6.375613703421053,-2.531273301606171,True,2.750499999999999
mp-28851,Na16 Cd12 Se20,48,Orthorhombic,62,1217.4276612435087,4.495613425537107,25.363076275906433,1.87087896,-3.184862374791669,-1.040989785394668,True,1.0243
mp-8752,Na4 Cd1 P2,7,Trigonal,166,183.22344682410807,2.413614569796251,26.174778117729723,0.98877751,-2.771965502857142,-0.320845452114706,False,0.739499999999999
mp-1221350,Na4 Co9 Mo12 O48,73,Triclinic,1,1041.9962356745598,4.050341973765842,14.273921036637805,0.83531915,-7.806162753424657,-1.816881066376948,False,0.6292999999999991
mp-18762,Na8 Co2 O6,16,Monoclinic,9,228.79241128294916,2.887031060845253,14.299525705184323,1.2812828600000001,-4.882426279375,-1.464403423189655,False,1.1481
mp-760068,Na32 Co8 O32,72,Triclinic,1,1089.5161762520793,2.6201210074691232,15.132169114612212,0.42312631,-5.094283831666667,-1.506267847835249,False,1.2643
mp-28789,Na32 Cu16 S24,72,Tetragonal,88,1656.5327621645017,2.5280679675355433,23.00739947450697,1.59763899,-3.862014523888889,-0.975306173113025,True,2.0854
mp-19022,Na8 Fe2 O8,18,Triclinic,2,234.61482911502378,2.998147734785597,13.034157173056876,0.72451952,-5.362194069444445,-1.625666475613027,False,1.763199999999999
mp-28773,Na16 Ga8 S20,44,Monoclinic,14,960.7173756956197,2.7083223977249293,21.834485811264084,1.19707451,-4.151208824318181,-1.231674915501566,False,2.8850000000000002
mp-28355,Na8 Ge4 Se10,22,Triclinic,2,551.1685587068778,3.808365200068418,25.05311630485808,1.16089259,-3.932188732727271,-1.014689077021452,False,1.6797
mp-28107,Na8 Ge4 Te10,22,Triclinic,2,689.331295976232,4.2167494458943064,31.333240726192365,2.563907399999999,-16.09195140590909,-0.720424225,False,1.0023
mp-2970,Na8 Ge2 O8,18,Triclinic,2,240.6118147083184,3.155237520758228,13.367323039351023,0.54023943,-5.31812012,-2.009036232279693,False,2.8173
mp-28292,Na32 Ge8 Se32,72,Orthorhombic,62,1996.2619059012204,3.197127007515962,27.725859804183617,0.57756531,-3.750821499583333,-1.087092957349138,False,1.7906
mp-643001,Na8 H12 Ru2,22,Trigonal,167,267.36352122821296,2.472847937591823,12.152887328555135,0.70245148,-5.84652908,-0.35453526340909103,False,2.0349
mp-22937,Na4 I2 O1,7,Tetragonal,139,170.91532597430805,3.514775083663585,24.416475139186865,1.87829796,-3.37821586857143,-1.469234532931035,True,2.2131
mp-1103730,Na4 Mg1 Ge2 Se6,13,Monoclinic,5,323.53548336994055,3.7739327172713493,24.88734487461081,1.37602157,-3.953664710769231,-1.090674118044595,False,1.822099999999999
mp-1103351,Na4 Mg1 Si2 Se6,13,Monoclinic,5,305.06606980919986,3.517376320721198,23.466620754553837,1.794240139999999,-4.151749903846153,-1.16533005342921,False,2.7632000000000003
mp-29984,Na16 Mo4 O20,40,Triclinic,2,492.10786857118114,3.6158893629419833,12.302696714279529,1.45644352,-6.108547262,-2.013313437051724,False,2.9246
mp-559561,Na16 Mo4 S12 O56,88,Orthorhombic,19,1253.992268660832,2.6912322735089163,14.249912143873091,0.95181866,-6.542438586704545,-2.092481041387146,False,2.7865
mp-29871,Na16 Se4 O20,40,Triclinic,2,479.29331930429146,3.477252293861028,11.982332982607286,1.88012653,-5.044312055250002,-1.6840520935361,False,1.3349
mp-569337,Na32 Si16 Te40,88,Monoclinic,14,2704.060782266285,3.86204248971939,30.72796343484415,3.4978436,-3.690255678068181,-0.787160347054596,False,1.9301
mp-30931,Na16 Si4 Se16,36,Orthorhombic,62,932.142693894101,3.105976686090554,25.89285260816947,1.09483844,-3.912154813055555,-1.159282918043581,False,2.5923
mp-1221151,Na4 Sn1 Ge2 S6,13,Monoclinic,5,308.30294298753483,2.953388801539804,23.71561099904114,2.53160001,-4.374867731538462,-1.032354801962863,False,1.8668
mp-29626,Na8 Sn6 S16,30,Monoclinic,15,731.4324129337376,3.199286437268478,24.381080431124587,2.2908909,-11.069347968666667,-0.884330216833332,False,1.650599999999999
mp-28261,Na8 Sn2 O6,16,Monoclinic,9,262.91436281213777,3.267429852934444,16.43214767575861,1.9263857500000001,-4.675019916249998,-1.647477668189653,False,1.8842
mp-9655,Na8 Sn2 O8,18,Triclinic,2,265.7451621958398,3.432572347750595,14.7636201219911,0.88288751,-5.099994704444444,-1.8590725945019142,False,2.0838
mp-29628,Na8 Sn2 S8,18,Tetragonal,114,425.34731398450424,2.646331385484886,23.630406332472457,1.50509446,-9.046311478888889,-1.141544546805556,True,2.078
mp-28768,Na8 Sn2 Se8,18,Tetragonal,114,485.4194067820355,3.6021999914389413,26.967744821224194,1.13860655,-3.7164535755555552,-1.120886811099137,True,1.4647000000000001
mp-28108,Na16 Sn4 Te16,36,Orthorhombic,19,1170.7008432336277,4.091099375883919,32.51946786760077,3.01241656,-16.491829346666666,-0.8616289799999991,True,1.0196
mp-1221154,Na8 Sr4 Si2 As8,22,Monoclinic,9,600.2006909289171,3.2921406653893452,27.28184958767805,2.67677285,-3.651216724545454,-0.6641669559561131,True,0.5886
mp-1221153,Na8 Sr4 Si2 P8,22,Monoclinic,9,540.3597489350364,2.57629901119147,24.56180676977438,3.37252655,-8.924274480000001,-0.8033550015367961,True,0.9527000000000001
mp-1221156,Na8 Sr4 Ti2 As8,22,Monoclinic,9,613.1999322037116,3.3294866843127933,27.872724191077797,2.84541164,-3.9887678227272723,-0.7771567826227791,False,1.208899999999999
mp-1221155,Na8 Sr4 Ti2 P8,22,Monoclinic,9,566.890009967281,2.571617365501011,25.767727725785498,3.29031982,-4.240679859545454,-0.758032094765636,False,1.3214000000000001
mp-15391,Na8 Te2 O10,20,Triclinic,2,240.47243006252438,4.13706110564,12.023621503126218,2.20690458,-5.198392534,-1.87339313071839,False,1.9814999999999992
mp-555678,Na4 Ti5 O12,21,Trigonal,147,233.51591589482908,3.72110954050869,11.119805518801385,2.07021066,-8.070145161904762,-3.107293959151615,False,2.4744
mp-680756,Na40 Ti10 P20 O90,160,Monoclinic,13,2117.424769489846,2.711603331655081,13.233904809311536,0.94907406,-7.072595668625,-2.783534966946018,False,2.8528000000000002
mp-505798,Na32 Ti8 Se32,72,Monoclinic,15,1889.7224208526623,3.203227369406854,26.246144734064753,2.5521919,-4.362810558888889,-1.335474887580619,False,1.6617000000000002
mp-754829,Na8 V2 O8,18,Triclinic,2,242.6277493074886,2.832013295236732,13.479319405971589,2.51212672,-5.855999122222222,-2.051262099501916,False,1.067199999999999
mp-705037,Na32 V8 P16 O72,128,Orthorhombic,61,1685.6524774210552,2.7491642129901903,13.169159979851994,2.22894854,-6.9561409315625,-2.592804351550184,True,1.766599999999999
mp-699658,Na32 V8 S24 O104,168,Monoclinic,14,2219.770990974931,2.675615540974507,13.21292256532697,0.8895263,-6.516938483214285,-2.174587961691296,True,2.6285
mp-505045,Na20 In8 Te24,52,Orthorhombic,36,1647.398029005148,4.47616247230258,31.680731327022077,2.96323327,-3.276077225576922,-0.8847859379022971,True,1.003699999999999
mp-1194446,Na10 Ag2 Ge4 S14,30,Monoclinic,15,694.5545408688715,2.833343572443051,23.151818028962385,1.86342929,-4.221306555333333,-1.036898938404213,False,1.758199999999999
mp-1210225,Na10 Ag2 Ge4 Se14,30,Monoclinic,15,809.9624915798431,3.775613549106419,26.998749719328103,1.04074617,-3.836016518333333,-0.9514180099979641,True,1.1633
mp-24822,Na10 Al6 H28,44,Tetragonal,128,454.5287279182615,1.5344283338340912,10.33019836177867,0.75579642,-4.172269673636364,-0.24550733465909003,False,2.9039
mp-13998,Na40 Al8 O32,80,Orthorhombic,61,1046.3223304003511,2.614501891537602,13.07902913000439,1.30996169,-5.096013453875,-2.071411079564654,False,2.6242
mp-757878,Na20 Cu4 H8 O16,48,Orthorhombic,62,655.2403334654371,2.478575309604934,13.65084028052994,1.25752717,-4.566821115416666,-1.450988827033045,True,1.4867
mp-11147,Na5 Cu1 S1 O2,9,Tetragonal,123,171.9594898359751,2.342284852513859,19.10660998177501,1.11843338,-4.075473327777778,-1.315240867710728,False,1.5205000000000002
mp-760318,Na40 Fe8 O32,80,Orthorhombic,61,1113.5711159791229,2.800937370994305,13.919638949739035,0.86051888,-5.127441568000004,-1.630394655689659,True,2.1683
mp-7656,Na40 Ga8 O32,80,Orthorhombic,61,1077.8470662569932,3.064815730127265,13.473088328212416,0.51599592,-4.7578564194999995,-1.805002025939654,False,2.4236
mp-16861,Na20 Ge4 As12,36,Monoclinic,14,833.3122789024648,3.286783869326887,23.147563302846244,1.9915903400000001,-8.950758468055556,-0.52681698,False,0.5043
mp-4172,Na20 Ge4 P12,36,Monoclinic,14,768.6344426154534,2.424028940687876,21.35095673931815,2.27122384,-7.001334483055555,-0.47921122015873,False,1.079699999999999
mp-1210180,Na5 I1 O6,12,Monoclinic,12,145.11418382396496,3.8660083937934253,12.09284865199708,1.8797032900000001,-4.815948365,-1.6559164868247112,False,1.8834
mp-14493,Na40 In8 O32,80,Orthorhombic,61,1197.5016200973184,3.258833768162608,14.96877025121648,1.05316793,-4.599326989,-1.673364823356319,True,1.890699999999999
mp-29376,Na10 In2 S8,20,Monoclinic,11,462.25325356226796,2.572259084202261,23.1126626781134,1.2709822800000001,-8.4750354645,-1.2210865086249991,True,2.0219
mp-28597,Na40 In8 Te32,80,Orthorhombic,60,2729.530223311007,3.602307690173624,34.119127791387584,2.56350401,-3.1660170165,-0.9619168955229871,True,1.6777000000000002
mp-1195001,Na10 Li2 Mo18 O60,90,Orthorhombic,43,1287.7996460490474,3.77891201313102,14.308884956100526,0.12773122,-7.7217312574444446,-2.062459970782885,False,2.9755000000000003
mp-554395,Na10 Li6 Ti4 S16,36,Monoclinic,15,760.59604074269,2.130923486444718,21.127667798408055,1.2459539,-4.916998907777778,-1.509597070753512,False,2.2797
mp-5477,Na10 Nb2 O10,22,Monoclinic,15,306.2207573990195,3.121864575118567,13.919125336319068,0.62323331,-6.006211448636365,-2.228964725172415,True,2.6374999999999993
mp-21996,Na40 Ni8 O32,80,Orthorhombic,61,1062.5577287167844,2.971021624995988,13.281971608959804,1.87589454,-4.643667379375001,-1.415608920064655,False,1.8963
mp-18139,Na20 Si4 As12,36,Monoclinic,14,813.178011806603,3.004236919306103,22.588278105738972,2.28652122,-8.416114727777778,-0.5586413491666681,True,1.1475
mp-5929,Na20 Si4 P12,36,Monoclinic,14,746.9737772789399,2.098138154256491,20.749271591081666,2.80676326,-6.495810671944444,-0.540155518492063,False,1.325099999999999
mp-5248,Na20 Sn4 As12,36,Monoclinic,14,878.403117012943,3.466428381943949,24.40008658369286,2.22651087,-3.152072980277777,-0.40445705298850504,True,0.4045
mp-18317,Na20 Sn4 P12,36,Monoclinic,14,813.2469628551495,2.667327849939681,22.590193412643043,2.656570089999999,-8.221056626111112,-0.49068822988095206,False,1.3674
mp-29739,Na40 Sn8 Sb24,72,Monoclinic,14,2163.9795956661,3.676786435300554,30.05527216202917,3.03778996,-2.982304932638889,-0.415062769516282,False,0.6311
mp-1220796,Na10 Sr2 Nb2 As8,22,Monoclinic,9,604.4887130498623,3.269834854623242,27.47675968408465,2.63827653,-3.975568268636364,-0.595311254717868,False,1.1672999999999991
mp-1220783,Na10 Sr2 Nb2 P8,22,Monoclinic,9,549.5050199778015,2.534574566907846,24.977500908081883,3.10585782,-4.24152451090909,-0.590230772315269,False,1.3189
mp-1220895,Na12 B36 Se34,82,Monoclinic,9,1698.5960109613998,3.274663102165147,20.714585499529264,1.21619753,-5.215206463414637,-0.6369169105638951,True,2.1085
mp-2763369,Na6 Cd7 S10,23,Monoclinic,8,543.5695975196122,3.804746108650864,23.63346076172227,1.65361124,-11.524513128260871,-0.9823397338315221,False,1.0715
mp-1173830,Na24 Ga4 As12,40,Triclinic,1,983.674228794419,2.9199136691686993,24.591855719860476,1.93770214,-2.9081594295,-0.39928060032758605,True,0.347699999999999
mp-1173850,Na24 Ga4 P12,40,Triclinic,1,897.8149881191167,2.22375281142179,22.44537470297792,2.81439322,-3.08407202025,-0.35158789322044204,True,0.875899999999999
mp-27752,Na12 Ge4 S14,30,Monoclinic,15,686.471434505351,2.45607269157867,22.882381150178368,0.97590183,-4.232363957666668,-1.148037467385058,False,2.4264
mp-18100,Na12 Ge4 Se14,30,Monoclinic,15,790.558880384586,3.511714972933793,26.3519626794862,0.64705072,-3.840595634333332,-1.056078252645473,True,1.5871
mp-27125,Na6 Mn1 Cl8,15,Cubic,225,344.2064916898619,2.298759556902208,22.94709944599079,0.77525522,-7.639654632,-1.9537926802988501,False,2.5584
mp-5055,Na12 Mn2 S8,22,Hexagonal,186,479.4265875932513,2.224574041475686,21.79211761787506,1.909590199999999,-7.48083355,-1.280068602339341,True,1.400299999999999
mp-14780,Na12 Mn2 Se8,22,Hexagonal,186,541.9475169620226,3.117437989659179,24.633978043728302,1.3339700300000001,-9.731278663181818,-1.248127843248431,True,1.133299999999999
mp-553959,Na6 Nb8 P5 O35,54,Trigonal,155,724.4088866971854,3.658545073352692,13.41497938328121,3.25330617,-8.224592854074073,-2.8705786356757432,False,0.038199999999999006
mp-16180,Na6 S2 O9,17,Cubic,225,218.92562849752352,2.624870797876284,12.877978146913149,1.735700399999999,-5.6677224611764725,-2.087799352251522,False,2.9814
mp-16961,Na12 Si4 Se14,30,Monoclinic,15,770.0069881144412,3.221112982279038,25.66689960381471,1.01075453,-4.02857967,-1.137090264978807,False,2.1551
mp-7664,Na12 Zn2 O8,22,Hexagonal,186,283.6496830435417,3.13017924181566,12.893167411070078,1.11002328,-4.186835490454545,-1.5412070993887141,True,1.533599999999999
mp-8389,Na12 Zn2 S8,22,Hexagonal,186,467.85737026673735,2.353911408106195,21.266244103033515,0.98343387,-6.918089973636364,-1.242118850568181,True,2.1581
mp-1024047,Na12 Zn2 Se8,22,Hexagonal,186,532.4359322236804,3.23844153466847,24.201633282894566,0.6185740200000001,-3.293270883636363,-1.175660502513715,True,1.6667
mp-28267,Na14 Al4 Sb10,28,Monoclinic,11,756.142234020511,3.617763405355436,27.00507978644682,3.43193907,-12.439542395714286,-0.5148967314285721,False,0.308799999999999
mp-556168,Na14 Al6 O16,36,Triclinic,2,455.4124632658227,2.6972498400709632,12.650346201828407,1.45124136,-5.814454737499998,-2.46931801636973,False,2.7979000000000003
mp-1173826,Na21 As33 O93,147,Triclinic,1,1852.152653652068,3.983478960056349,12.599677916000463,3.41503016,-6.189925601496598,-1.819513673683438,True,2.1627
mp-541689,Na14 In6 Se16,36,Triclinic,2,948.3521108776914,3.9819313728104513,26.343114191046983,1.48684284,-12.6289698,-1.119107745694445,True,1.430499999999999
mp-764233,Na16 Co2 O12,30,Hexagonal,185,424.29617876544563,2.652250731456852,14.143205958848188,0.83701769,-4.665558957666667,-1.495229025735632,False,0.9516999999999991
mp-27557,Na32 Fe8 O28,68,Monoclinic,14,894.0558438030324,3.028187979118102,13.147880055926947,1.28820368,-5.325141853235294,-1.6598750482961462,False,2.109099999999999
mp-27618,Na32 Ga8 O28,68,Monoclinic,14,888.3964661130715,3.254998143843118,13.064653913427522,0.6802631,-4.891087734411763,-1.866047422119673,False,2.4378
mp-554071,Na16 Nb4 Cu8 S42,70,Orthorhombic,18,1615.9996504268329,2.666069856317152,23.085709291811902,3.42170782,-4.775239480428571,-0.9398465116724121,False,1.2382
mp-3138,Na16 Sn2 Sb8,26,Cubic,227,807.17941598685,3.249029382550054,31.045362153340385,2.20095223,-2.83928133,-0.43471648046419004,False,0.2672
mp-9071,Na16 Ti2 As8,26,Cubic,227,645.4275388160197,2.734712188516354,24.82413610830845,1.53753281,-8.403844876923078,-0.6898967597435891,True,1.0363
mp-761065,Na18 Fe6 P16 O58,98,Trigonal,165,1321.1870084687953,2.730428712063259,13.481500086416279,0.83903128,-7.108501411122449,-2.530946146113401,True,2.4659
mp-27303,Na2 Ag6 O4,12,Orthorhombic,72,189.61787116772987,6.630901866641533,15.801489263977489,1.30112012,-4.000185851666665,-0.7057765477298831,True,0.6596000000000001
mp-16992,Na4 Ag12 S8,24,Cubic,227,475.81948380964513,5.73346728329379,19.825811825401882,2.326256,-14.403468987083334,-0.453167292187496,True,0.9312
mp-7386,Na2 Ag2 F8,12,Tetragonal,140,155.4217440461332,4.420039617235297,12.951812003844433,-2.36872036,-8.110474405833333,-1.873112819999999,True,1.546399999999998
mp-6983,Na4 Ag4 O4,12,Tetragonal,139,203.02887841412408,4.804486944170164,16.919073201177007,0.50018036,-4.081103235833333,-1.036896748515324,False,1.2098
mp-754326,Na1 Ag1 O2,4,Monoclinic,12,51.30268643900297,5.271264458465234,12.825671609750742,0.79867351,-4.5233465724999995,-1.003201455761493,False,0.5911000000000001
mp-1210534,Na4 Ag4 Te20 O56,84,Monoclinic,14,1126.927332177789,5.851896391084504,13.415801573545107,4.85259125,-5.669721867261885,-1.4234055818513751,True,0.877899999999999
mp-1189227,Na2 Al2 P4 S12,20,Orthorhombic,43,484.6229103132762,2.085401630399595,24.23114551566381,1.91297429,-5.0213897355,-0.9465496290665011,False,2.6538
mp-568785,Na4 Al12 Ni4 Cl48,68,Monoclinic,14,2050.3376019857615,1.9050577579658272,30.15202355861414,-0.77565008,-4.223956305,-1.839185802139959,False,1.4245
mp-34763,Na2 Al2 B28,32,Orthorhombic,74,249.4444449200404,2.680424805107811,7.795138903751263,5.94362232,-7.2488131675,-0.1772358134375,False,1.584799999999999
mp-17060,Na8 Al8 Se16,32,Monoclinic,15,793.4023364238976,3.480823007376366,24.7938230132468,1.65744354,-10.959019227812501,-1.229169387343748,False,2.7291
mp-10163,Na2 Al2 Te4,8,Tetragonal,140,233.94709066195196,4.332166536513134,29.243386332743995,3.79437726,-16.10640907,-0.823727190000003,True,1.2875
mp-1106381,Na8 As8,16,Monoclinic,14,372.1273917629648,3.495268713941957,23.2579619851853,2.36050273,-9.655195674375,-0.519339895624998,False,0.5734
mp-730154,Na2 As6 H4 O18,30,Triclinic,2,366.98468282551045,3.563430726082945,12.232822760850349,0.20291617,-6.085215585333334,-1.6402775654252881,False,2.6467
mp-17868,Na6 As6 O18,30,Triclinic,2,419.5407583073476,3.4650536594977,13.984691943578252,-0.37660809,-6.056050933666667,-1.8849056684425292,False,2.8628
mp-5942,Na4 As4 S8,16,Monoclinic,14,377.2032996439169,2.853379324611498,23.575206227744808,1.67418309,-9.292502895625,-0.7070754651562491,True,1.3457
mp-984519,Na8 As8 Se16,32,Monoclinic,7,844.2655477837195,4.025444214952513,26.383298368241235,1.4394140500000001,-12.374051120625,-0.650343115781248,True,1.4318
mp-640950,Na6 B54 Se48,108,Trigonal,147,2325.28907315954,3.221982675614343,21.53045438110685,1.23528883,-5.484309286759259,-0.5163349235719971,False,1.9515
mp-9573,Na2 Be2 As2,6,Hexagonal,194,111.66173289766867,3.180153655733842,18.61028881627811,2.3730639,-3.6301025583333333,-0.37968383295977004,False,1.287399999999999
mp-1210052,Na2 Br2 F8,12,Tetragonal,140,166.86663573206815,3.560322111876248,13.905552977672345,2.03970215,-3.665364227499999,-1.893018091896551,True,2.9541999999999993
mp-1120755,Na2 C2 O6,10,Trigonal,167,123.79553348782787,2.226615596414948,12.379553348782787,-1.46431483,-6.870565965999999,-1.7877121087758612,False,0.6623
mp-1189407,Na2 Ca4 I2 O12,20,Monoclinic,14,264.3892132267418,4.095576937125335,13.21946066133709,5.37396264,-5.8798589759999995,-2.223389057637931,False,2.6721999999999992
mp-6281,Na2 Ca6 Ru2 O12,22,Trigonal,167,282.5916039102002,3.99916425152482,12.8450729050091,3.49155639,-6.780300290454545,-2.569328564216301,False,0.43900000000000006
mp-961685,Na1 Ca1 As1,3,Cubic,216,82.89801505073483,2.764079915842361,27.632671683578277,1.22372693,-9.48279434,-1.0461259208333331,False,1.5818999999999992
mp-6684,Na4 Cd4 P4 O16,28,Orthorhombic,62,373.37990834149053,4.098152206909577,13.334996726481805,0.98466128,-6.318627815714286,-2.38876374228888,True,2.9173
mp-21404,Na4 Co4 F12,20,Orthorhombic,62,230.60167405430886,4.001342240631689,11.530083702715443,0.40272957,-5.440153471000003,-2.596814546275864,False,2.9522
mp-18921,Na1 Co1 O2,4,Trigonal,166,37.00440947813951,5.112135088513984,9.251102369534877,3.19186026,-6.150268552500005,-1.557503675344833,False,2.245199999999999
mp-21213,Na2 Cr2 Ge4 O12,20,Monoclinic,15,239.67302851175378,4.3823525466509,11.98365142558769,2.29586215,-7.200982999999999,-2.208124001137931,False,2.8468
mp-1210128,Na2 Cr2 P4 S12,20,Orthorhombic,43,482.49024827905856,2.2667996380744713,24.124512413952928,2.06682499,-5.527427009,-0.8618397385665011,False,1.6163999999999992
mp-1210195,Na1 Cr1 S2 O8,12,Monoclinic,12,157.0557890027371,2.824145282877851,13.087982416894759,3.32392053,-6.9874233175,-2.082825365531609,False,2.7232000000000003