material_id,composition,nsites,crystal_system,space_group,volume,density,density_atomic,efermi,energy_per_atom,formation_energy_per_atom,is_gap_direct,band_gap
mp-32800,Ac16 S24,40,Tetragonal,122,1118.407852007047,6.535149338291522,27.960196300176175,5.79182041,-34.76847769475,-2.492486480437497,False,2.2962
mp-867311,Ac1 Ag1 Te2,4,Cubic,225,122.51840622789024,7.997421189399148,30.62960155697256,6.03109649,-36.20318308,-0.996231785625006,False,0.07939999999999901
mp-866101,Ac1 Cr1 O3,5,Cubic,221,61.36284504026082,8.848788046728616,12.272569008052164,6.3647368,-8.862593228,-3.1389721295,False,2.0031
mp-861502,Ac1 Fe1 O3,5,Cubic,221,61.79731063258672,8.889999465919495,12.359462126517345,6.50904465,-8.258555312000002,-2.771539465500001,False,0.9887999999999991
mp-1183053,Ac1 Ga1 O3,5,Cubic,221,61.455078293307366,9.31449500321555,12.291015658661474,5.47693479,-7.461883426,-3.063252617,False,2.895900000000001
mp-861884,Ac1 Ga1 Te2,4,Cubic,225,127.62295354587478,7.18122937756361,31.905738386468695,5.75964384,-33.8003172675,-1.071641271875002,False,0.49099999999999905
mp-861605,Ac1 H3,4,Cubic,225,49.065716066750646,7.784733821859042,12.266429016687662,6.59472466,-20.422506185,-0.671802030937499,False,0.640699999999999
mp-861867,Ac2 I6,8,Hexagonal,194,465.6364161794002,4.3344198328891235,58.20455202242503,-0.21485256,-3.974306416250002,-1.801003203125001,False,2.5892
mp-861460,Ac1 In1 Te2,4,Cubic,225,133.1005095654828,7.448293892336029,33.2751273913707,6.61702776,-36.6776517175,-1.165022114374998,False,0.3799
mp-866056,Ac2 N2,4,Hexagonal,186,99.88023485516378,8.01361833485228,24.970058713790944,5.27613211,-40.20567818,-1.322563138124998,False,0.0517
mp-865028,Ac1 Tl1 Te2,4,Cubic,225,135.23314933262142,8.430613335203375,33.808287333155356,6.28014726,-4.446217372500001,-1.251402644791669,False,0.6253000000000001
mp-18125,Ag2 Au4 F16,22,Monoclinic,14,312.7943233865305,6.941567477313422,14.21792379029684,-1.9663921,-14.614051521818181,-1.201867790454545,True,0.258499999999999
mp-567334,Ag8 B48 Cl48,104,Cubic,205,1920.521817588254,2.666185535806875,18.466555938348595,0.44599951,-8.609922744615385,-0.736950766538461,True,2.7028
mp-568392,Ag40 Te16 Br12,68,Orthorhombic,63,1688.3369880809976,7.194733997305497,24.8284851188382,2.53642879,-3.067222241470587,-0.366431655490194,False,0.8722000000000001
mp-560328,Ag30 P8 S32 Cl6,76,Cubic,220,1709.5912546710772,4.58713063268096,22.49462177198786,2.45878099,-4.062214611973684,-0.481547749962405,False,1.288799999999999
mp-23558,Ag8 Bi4 O12,24,Orthorhombic,34,366.5717609472597,8.565435840877605,15.273823372802488,3.02670031,-4.9872767174999995,-0.9173112705555521,True,0.38720000000000004
mp-4691,Ag4 C2 O6,12,Monoclinic,11,150.04142135044484,6.103459150948377,12.503451779203736,1.709619,-6.049622620833333,-1.0898853101388881,False,0.4736
mp-1196546,Ag12 Ge6 S36 O126,180,Trigonal,147,2544.8376861250085,3.197653665902322,14.137987145138936,0.45782614,-6.234629919055555,-1.5997551950000002,False,2.8072
mp-861942,Ag4 Ge2 Pb2 S8,16,Orthorhombic,40,364.72549463914106,5.680462312578542,22.795343414946316,3.72941608,-4.371751153750001,-0.549877584791666,False,1.3699
mp-9900,Ag4 Ge2 S6,12,Orthorhombic,36,267.88001723767724,4.7677750672269035,22.323334769806436,2.60005489,-4.253843314166668,-0.46651299513888905,False,0.4646
mp-860963,Ag8 H16 S12 O48,84,Orthorhombic,33,1057.2732554233448,3.1911550258767,12.586586374087439,0.51781943,-5.7852615867857144,-1.449206735634919,False,2.8821
mp-553949,Ag4 Hg4 Te6 O24,38,Monoclinic,14,527.3200182080277,7.50542218879301,13.876842584421782,2.80316384,-5.058229037105262,-1.105035922807017,True,0.16060000000000002
mp-1229141,Ag4 Hg2 Ge2 S8,16,Monoclinic,7,384.2992556974872,5.334012673413459,24.01870348109295,1.87268762,-3.8600173137500002,-0.46351562385416606,True,0.44410000000000005
mp-23485,Ag2 Hg1 I4,7,Tetragonal,82,266.73707472580065,5.75190222011236,38.105296389400095,0.98243359,-2.239733668571428,-0.512362546547618,True,1.2219
mp-29816,Ag8 Hg4 O8,20,Tetragonal,96,325.1760355986749,9.157642970468542,16.258801779933744,1.23015248,-3.6326410955,-0.45434721466666705,True,0.41029999999999905
mp-556866,Ag4 Hg2 S2 I4,12,Orthorhombic,36,397.00142510366817,5.874190989845033,33.08345209197235,1.31122136,-2.638433179166666,-0.441444480555555,True,1.2212
mp-27966,Ag4 Mo4 O14,22,Triclinic,2,291.2230911313625,5.92560400502563,13.23741323324375,1.41119634,-7.145007251818182,-1.5074706507575741,True,1.9011
mp-1190325,Ag4 P4 Pd2 O14,24,Monoclinic,15,346.0448076380572,4.761192507145591,14.418533651585717,1.53579602,-6.480135952083334,-1.785766681051587,False,1.166799999999999
mp-707138,Ag6 P3 H3 O12,24,Trigonal,151,310.71896796293834,4.997597387476359,12.94662366512243,1.40823395,-5.859486359166667,-1.5734414415699391,False,1.3274
mp-13956,Ag16 P8 Se24,48,Orthorhombic,19,1108.8818421155377,5.793370047018977,23.1017050440737,2.942116249999999,-15.944159909375001,-0.16940802690228102,False,1.186599999999999
mp-1192057,Ag4 S4 O14,22,Triclinic,2,283.0099298607328,4.598442833041431,12.8640877209424,1.0793688,-5.823396676818183,-1.405367447121212,False,2.301599999999999
mp-5625,Ag4 S2 O8,14,Orthorhombic,70,190.79392951841285,5.427367859487863,13.628137822743776,1.51506221,-5.487343809999999,-1.25647538940476,False,1.2289
mp-16913,Ag8 Se4 O12,24,Monoclinic,14,379.07993911815055,6.00462026596979,15.794997463256273,1.411950319999999,-4.82936551125,-0.8250872030295131,False,1.7022
mp-2748718,Ag8 Se4 O12,24,Monoclinic,14,347.44167549186955,6.551404869979988,14.476736478827897,5.86670169,-13.060735159166667,-0.5723392206770821,False,2.093499999999999
mp-11641,Ag4 Se2 O8,14,Orthorhombic,70,206.56740910925978,5.766886485369779,14.754814936375698,1.05826351,-4.9791975121428536,-0.8401073900967221,False,0.42639999999999906
mp-1197599,Ag12 Sn6 S36 O126,180,Trigonal,147,2653.4327389864748,3.239771500006885,14.741292994369305,0.59211378,-6.23090771438889,-1.6164815236666672,False,2.4602
mp-1214926,Ag4 Sn2 Hg2 S8,16,Orthorhombic,31,410.8585196337488,5.361600318849351,25.6786574771093,2.40127885,-3.788867694375,-0.46904800447916606,True,0.015699999999999003
mp-558768,Ag12 Te6 O24,42,Monoclinic,15,571.3964053953825,7.102537017394162,13.60467631893768,3.10036553,-5.053196220714284,-0.9644783249999971,False,0.0001
mp-29163,Ag4 Te2 S6,12,Monoclinic,9,283.64708953369046,5.146247485897094,23.637257461140873,3.06303025,-15.450798160833335,-0.07846885307291701,True,1.2999
mp-1229185,Ag3 As1 F12,16,Triclinic,2,257.7727691321683,4.035877863536669,16.11079807076052,-1.54004111,-4.06158381125,-1.8012610570312502,False,0.099399999999999
mp-2749579,Ag3 As1 F12,16,Triclinic,2,223.3297557360757,4.658310798461213,13.958109733504731,-0.39518751,-8.892999968125,-1.625031354218749,False,0.153999999999999
mp-1229124,Ag6 As2 O8,16,Trigonal,161,231.67585647847818,6.630288117256906,14.479741029904886,1.55068626,-5.0878547637499985,-0.9640073153124981,True,9.999999999998901e-05
mp-561620,Ag12 As4 S12,28,Monoclinic,15,609.210655176892,5.393890423250708,21.757523399174715,2.58503439,-14.856800679642857,-0.15963501263392502,False,1.627799999999999
mp-9538,Ag6 As2 S8,16,Orthorhombic,31,361.33783611518703,4.841724156265268,22.58361475719919,2.29666944,-14.004931924375,-0.14053708046874802,True,0.35760000000000003
mp-662599,Ag36 As12 Se36,84,Orthorhombic,62,1999.8841113957092,6.3310677588622415,23.808144183282252,2.409090029999999,-3.686177482499999,-0.302367482433035,False,0.9037000000000001
mp-3172,Ag12 Au4 Se8,24,Cubic,214,505.3373305676981,8.918091138858923,21.05572210698742,2.75371285,-24.028476175416667,-0.14919083427083002,True,0.023499999999999
mp-562412,Ag6 F16,22,Monoclinic,14,294.2661391457791,5.367513968524786,13.375733597535413,-2.15468164,-9.29583318590909,-1.19802818272727,False,0.306899999999999
mp-17862,Ag6 Ge10 P12,28,Cubic,217,555.1297730873276,5.220634131745827,19.826063324547416,4.96125876,-13.430468067857143,-0.041898267346937,False,0.5388000000000001
mp-27821,Ag3 P11,14,Monoclinic,8,286.19742275452717,3.854411510979593,20.442673053894797,4.72455039,-11.695485984285714,-0.046166636624148,False,0.8305999999999991
mp-1229128,Ag6 P2 O8,16,Trigonal,161,217.9957698023499,6.376836925513446,13.62473561264687,1.987666,-5.6263685075000005,-1.409352184955356,False,0.42099999999999904
mp-12459,Ag6 P2 S8,16,Orthorhombic,31,343.7950769597486,4.6642434210773995,21.487192309984287,2.7710648300000003,-13.406856891875,-0.255643882403273,True,0.9914000000000001
mp-1195261,Ag6 Sb8 F48,62,Cubic,220,1021.0688786695754,4.119700930201005,16.468852881767344,-1.14474359,-4.682545432741935,-2.392955916774192,False,0.012499999999999001
mp-555269,Ag12 Sb4 S12,28,Monoclinic,14,619.9007608841648,5.802740886522704,22.139312888720173,3.2333898,-16.474797739285712,-0.206377109062497,False,1.5142
mp-17568,Ag6 Sn4 Ge6 P12,28,Cubic,217,599.9749833483756,5.340445300301106,21.4276779767277,5.73255082,-4.531965189285715,-0.03840222770408,False,0.21549999999999903
mp-29849,Ag6 Sn2 P14,22,Monoclinic,11,440.2562180219747,4.972162214217336,20.01164627372612,5.22235731,-13.879101481363637,-0.07652426325757501,False,0.5034000000000001
mp-5710,Ag12 Te8 Au4,24,Cubic,214,572.347202751638,9.002915200236917,23.84780011465158,4.18261696,-27.687024105000003,-0.10585073750000101,False,0.17250000000000001
mp-558550,Ag16 Mo8 Se12 O64,100,Orthorhombic,57,1505.9734552045547,4.923147149080397,15.059734552045548,1.93171076,-6.1359531049000005,-1.227226647047916,True,1.7787000000000002
mp-553924,Ag16 P4 I4 O16,40,Monoclinic,11,692.4997791575145,6.266635514977661,17.31249447893786,2.5685464700000002,-5.03805461425,-1.227746526880951,False,0.9546000000000001
mp-554357,Ag16 Te4 O20,40,Monoclinic,15,547.1523718025333,7.757987894218503,13.678809295063331,2.84030266,-4.6967507775,-0.771264614333333,False,0.0041999999999990005
mp-1199607,Ag16 Te4 S4 O16,40,Cubic,198,722.4627695759586,6.023163941035384,18.061569239398967,2.43873801,-4.8114716125,-0.9669455930833321,False,0.6883
mp-28812,Ag20 Bi4 O16,40,Monoclinic,14,657.9319829937269,8.20077131927059,16.448299574843173,2.35552841,-4.448196131999998,-0.6585394598333311,False,1.5002
mp-568540,Ag5 Hg4 P8 Cl5,22,Monoclinic,12,505.02478591961113,5.809155511485511,22.955672087255053,2.55826775,-3.481078092272727,-0.3892654220671,True,0.9788000000000001
mp-559847,Ag5 P1 S4 Cl2,12,Orthorhombic,38,266.6080377505904,4.792626948079725,22.21733647921587,2.11389917,-3.8665948225,-0.543204340248014,False,1.2689
mp-1191916,Ag10 P2 Se2 O8,22,Tetragonal,129,359.29741372626694,6.59295935333068,16.331700623921225,2.18697744,-5.037792595909091,-1.136163740029084,False,0.30759999999999904
mp-573465,Ag40 Te16 Cl8,64,Orthorhombic,62,1496.0595066727228,7.36996065141199,23.375929791761294,3.23039858,-20.7084073303125,-0.23762317500000302,True,0.198499999999999
mp-8594,Ag28 P4 Se24,56,Cubic,198,1270.0780856995023,6.588463101896856,22.67996581606254,2.3550878600000003,-17.620178441785715,-0.165708605167939,True,0.7841
mp-9770,Ag32 Ge4 S24,60,Orthorhombic,33,1207.5522476673805,6.204443918976512,20.12587079445634,2.54715587,-3.806650973499999,-0.32687186105555205,True,0.6102000000000001
mp-15645,Ag32 Sn4 S24,60,Orthorhombic,33,1251.1597547752183,6.232772680959803,20.852662579586973,2.76005972,-16.45812503,-0.204578667791666,True,0.535099999999999
mp-17984,Ag16 Sn2 Se12,30,Orthorhombic,31,698.5069330504559,6.919829560988783,23.283564435015197,2.25874211,-18.974680610666667,-0.21050978895833203,False,0.0009999999999990002
mp-1195618,Ag18 P28 O56 F56,158,Monoclinic,14,2528.2510606600426,3.132097467309695,16.001588991519256,-0.59981769,-6.085869076392405,-2.370250809303797,False,0.026499999999999004
mp-556837,Ag2 As2 S32 F12,48,Monoclinic,15,1196.3066143383876,2.248149587717321,24.923054465383075,0.082589,-4.636179454791667,-1.085765807256944,False,2.765
mp-1191037,Ag2 As2 Se6 F12,22,Monoclinic,12,412.94668078325975,4.291903451511375,18.770303671966353,0.49260624000000003,-4.3202585968181815,-1.6399032428361742,True,1.6736
mp-985701,Ag2 As6 H4 O18,30,Triclinic,2,373.598899748098,4.254863694990965,12.453296658269933,1.655832859999999,-5.961336370666667,-1.4163172241111122,False,0.8362
mp-37153,Ag1 As1 F6,8,Cubic,225,143.5472964175908,3.433120375475912,17.943412052198852,-2.45040028,-4.5762138375,-2.201692029895833,False,1.6805999999999992
mp-1178563,Ag2 As2 O6,10,Trigonal,148,119.28055162319482,6.425733028349928,11.928055162319483,2.6978486,-5.741099903999998,-1.269711258833331,True,0.2921
mp-22665,Ag4 As4 Pb4 S12,24,Monoclinic,14,587.8926959589296,5.493035443621214,24.495528998288734,3.61164582,-4.439483013333334,-0.49935201611111,False,1.385999999999999
mp-1229194,Ag2 Au2 I8 O24,36,Monoclinic,7,592.8008393345641,5.62725555586381,16.46668998151567,2.41732299,-4.6902390125,-0.713105557037036,False,1.257299999999999
mp-570340,Ag2 Au2 Cl8,12,Monoclinic,15,309.1136795451723,4.7987161874327935,25.759473295431025,-0.18373725,-16.546201830833333,-0.45443635000000104,False,0.8406
mp-16060,Ag2 Au2 F8,12,Tetragonal,140,175.11537153700115,7.222443125335128,14.59294762808343,-0.63589991,-15.328661904999999,-1.254503722499999,False,1.0268
mp-996983,Ag2 Au2 O4,8,Monoclinic,14,115.7161805496547,9.66719256736608,14.464522568706837,1.78974023,-4.47273018125,-0.46954475916666605,False,0.6522999999999991
mp-1195262,Ag4 Bi4 I16 O48,72,Monoclinic,9,1177.9533310438158,5.73153553563091,16.360462931164108,5.83172471,-4.936763271666667,-0.9253991323148141,False,2.4344
mp-556434,Ag2 Bi2 P4 S12,20,Triclinic,2,457.3324642244417,4.147865928609672,22.866623211222084,3.29717518,-14.945477898499998,-0.338248097782738,False,1.183799999999999
mp-569126,Ag2 Bi2 P4 Se12,20,Trigonal,148,566.7127483749094,4.996191648875751,28.33563741874547,2.30059783,-4.319819855,-0.46588106450148803,False,1.2778
mp-28965,Ag1 Bi2 F12,15,Triclinic,2,221.12077468188747,5.66084614732116,14.741384978792498,-2.31832832,-13.509759819333334,-1.784909150333334,False,0.3971
mp-23474,Ag2 Bi6 S10,18,Monoclinic,12,448.86817991033735,6.622904931039951,24.93712110612985,4.42257898,-26.70918944611111,-0.371667913784724,False,0.5262
mp-556094,Ag2 Bi2 S2 Cl4,10,Orthorhombic,63,251.0431321841321,5.553841211740978,25.10431321841321,2.94206845,-3.859084348,-0.945400916833333,True,1.0752
mp-23231,Ag1 Br1,2,Cubic,225,48.38393788143195,6.4443509018534755,24.191968940715974,1.55338318,-2.899563145,-0.6596210383333321,False,0.730399999999999
mp-22922,Ag1 Cl1,2,Cubic,225,42.630581348524416,5.582622712233539,21.315290674262208,1.49474467,-14.322597954999999,-0.568439933749999,False,0.9522
mp-22993,Ag1 Cl1 O4,6,Tetragonal,121,81.38981885634249,4.229779246078329,13.564969809390414,0.57855162,-4.494621353333333,-0.414067270277776,False,2.3558
mp-18536,Ag6 F18,24,Hexagonal,178,334.38184645239704,4.91226665319555,13.932576935516543,-2.31708552,-8.8124376825,-1.128947433749999,False,0.20849999999999902
mp-558188,Ag4 Hg8 As4 O16,32,Orthorhombic,55,535.8941694848662,8.03125126453621,16.74669279640207,0.721492199999999,-4.54498204375,-1.054451005520835,True,0.738599999999999
mp-560443,Ag4 Hg8 N4 O20,36,Orthorhombic,62,575.0278362720093,6.9658627006965395,15.972995452000257,0.54462934,-4.741020420833333,-0.680979918240742,False,0.5517000000000001
mp-556798,Ag4 Hg8 P4 O16,32,Orthorhombic,55,526.9385487251272,7.613776461170054,16.466829647660226,1.18798522,-5.0920162065625,-1.5083162942261912,True,1.1892
mp-6215,Ag2 Hg2 As2 S6,12,Monoclinic,9,272.77148743482564,5.838973114425365,22.73095728623547,2.27810913,-3.7369156483333272,-0.36394715652777204,False,1.2453
mp-560067,Ag4 Hg4 S4 Br4,16,Orthorhombic,51,456.92579335201015,6.111590113044165,28.557862084500634,0.44680519,-2.77603834625,-0.5440593916666671,False,1.2604
mp-23140,Ag4 Hg4 S4 I4,16,Orthorhombic,19,476.02817449379484,6.522150985455425,29.751760905862177,1.20346121,-2.62993713875,-0.42619166416666704,True,1.3584
mp-580941,Ag4 I4,8,Hexagonal,186,268.4034289336924,5.809898805745882,33.55042861671155,1.27372464,-2.651235045,-0.46775989833333204,True,1.3759000000000001
mp-1194592,Ag4 I12 O32,48,Tetragonal,82,822.4673908574347,4.979406561017461,17.13473730952989,2.44893091,-4.669576572916667,-0.753021275972222,False,2.2937
mp-27384,Ag8 I8 O24,40,Orthorhombic,29,626.0775664617084,5.999922075919814,15.65193916154271,2.53516372,-4.555235327,-0.713068665333332,False,2.4375
mp-1214988,Ag2 Mo12 Cl26,40,Triclinic,2,988.5231112725482,3.8447583807349393,24.713077781813706,3.82068437,-13.918469490000001,-1.029996517375002,False,2.3227
mp-14029,Ag8 Mo8 P8 O48,72,Monoclinic,14,966.4893487294923,4.546519985628443,13.423463176798505,1.31383114,-7.402419884722223,-1.98110573542328,False,2.1219
mp-552185,Ag2 N2 O6,10,Trigonal,161,125.10450403344892,4.509524594558627,12.510450403344892,0.18466814,-5.885683233,-0.6806635453333331,False,1.853899999999999
mp-1194585,Ag8 P8 O16 F16,48,Monoclinic,15,825.2277717122167,3.361815516047696,17.192245244004514,-0.32697864,-5.925408358333333,-2.26173536438492,True,1.9686
mp-18702,Ag8 P8 O24,40,Monoclinic,14,523.544804128728,4.7408418269331225,13.088620103218199,1.3294247700000001,-6.578507001500009,-1.958048157761913,False,2.0232
mp-1206101,Ag1 Pb1 F6,8,Triclinic,2,121.42671659919569,5.86747808881931,15.17833957489946,-1.85908567,-13.7977484325,-1.748101063125002,False,0.21799999999999903
mp-1214944,Ag1 Rh1 S2 O8,12,Monoclinic,12,157.53327862063614,4.246908140287553,13.127773218386345,2.98033511,-6.301511567499999,-1.462540507222221,False,1.1739
mp-1202574,Ag4 S8 O24 F8,44,Monoclinic,14,724.8669816432666,2.80388373171141,16.474249582801516,-1.1328749,-5.731185887045455,-1.6734470149242422,True,0.18779999999999902
mp-1229086,Ag4 S4 O12 F4,24,Monoclinic,4,356.6309406735655,3.854012460146807,14.859622528065229,0.29962556,-5.547679475,-1.591174035694444,False,2.4337
mp-559602,Ag2 Sb2 S32 F12,48,Monoclinic,15,1223.0045445552034,2.326262989380092,25.47926134490007,0.16700779000000002,-4.667493903958333,-1.139626976944443,False,2.7813
mp-14653,Ag1 Sb2 F12,15,Triclinic,2,210.8719592335945,4.562317938042881,14.058130615572967,-2.44821656,-4.658656717333333,-2.3875121401111112,False,0.5397999999999991
mp-1199846,Ag2 Sb6 I2 F48,58,Monoclinic,15,958.7013111082242,3.658184373868095,16.529332950141796,-1.8301365,-4.423420604482759,-2.261820224712643,False,0.28939999999999905
mp-3414,Ag4 Sb4 F24,32,Cubic,206,453.8169095161924,5.029271754558892,14.181778422381013,-0.50672885,-4.6657260853124995,-2.358844439270832,True,1.7739
mp-540872,Ag4 Sb4 O12,20,Cubic,227,271.7080679491053,6.786835394315514,13.585403397455266,3.46847846,-5.807639057,-1.444474670333332,False,0.094599999999999
mp-3922,Ag4 Sb4 S8,16,Monoclinic,15,387.3395667497914,5.037409127368564,24.208722921861963,3.67345084,-16.03267823125,-0.24963047140624803,False,1.3716
mp-10809,Ag1 Sn1 F6,8,Triclinic,2,115.3616419681518,4.902214352980043,14.420205246018975,-1.4804390600000001,-10.2371670175,-2.129888439374998,False,0.405599999999999
mp-559257,Ag8 Te8 O24,40,Monoclinic,14,600.0363880095312,6.2757131490630265,15.000909700238278,4.29564998,-5.3124505845,-1.146425267166666,False,1.5732
mp-29718,Ag4 W12 Br28,44,Monoclinic,14,1300.1647877615076,6.226059589515711,29.549199721852446,0.65717063,-5.651965174772727,-0.817787528106059,False,2.6891
mp-1198361,Al12 Bi48 Cl48,108,Hexagonal,173,3947.4849865860497,5.071691198175095,36.55078691283379,2.0476112,-4.070141010833333,-1.103487203055556,True,1.4598
mp-672352,Al4 I12 Cl24,40,Monoclinic,15,1398.2754266689024,2.947115908427513,34.956885666722556,-0.47510819,-3.021958399750001,-1.08107135225,True,1.7285
mp-683984,Al8 Se32 Cl32,72,Orthorhombic,29,2160.292379766617,2.9801629867040083,30.004060830091905,0.11536432,-10.68627518611111,-0.843153536805556,False,1.1219000000000001
mp-574529,Al8 Se16 Cl32,56,Orthorhombic,55,1682.9229752279543,2.57894438387564,30.05219598621347,-1.28985934,-9.635590432142857,-1.069165520446427,True,1.4066
mp-540628,Al8 Te16 Cl32,56,Orthorhombic,61,1904.8466597665936,2.9569113344484963,34.01511892440346,-0.21213167,-12.855093756071428,-1.1156219646428571,True,1.3271