material_id,composition,nsites,crystal_system,space_group,volume,density,density_atomic,efermi,energy_per_atom,formation_energy_per_atom,is_gap_direct,band_gap
mp-7566,In2 P2 O8,12,Orthorhombic,63,145.8287101605789,4.777707091758406,12.152392513381576,3.2458172,-7.132522599999999,-2.471440718551586,False,2.3482
mp-20790,In1 P1 S4,6,Tetragonal,82,148.90520918656284,3.056129866493824,24.81753486442714,2.54884712,-11.104074381666665,-0.48396387820436304,False,2.3185000000000002
mp-19795,In4 S4,8,Orthorhombic,58,198.27912350889554,4.920436511985393,24.784890438611942,4.57303829,-15.98967065,-0.6828759189062491,False,1.3508
mp-1196350,In4 Sb4 P16 O56,80,Orthorhombic,33,1076.7839814855342,3.605277930348394,13.459799768569178,4.39399109,-7.3464820907499995,-2.455405933011904,True,2.9879000000000002
mp-559864,In2 Sb4 S8 Br2,16,Monoclinic,12,413.6061588860393,4.548765447983686,25.850384930377455,3.82493696,-4.3851547449999995,-0.734209616458331,False,1.5308000000000002
mp-556541,In2 Sb4 S8 Cl2,16,Monoclinic,12,408.72293024780345,4.241925353843078,25.545183140487715,4.01798084,-4.463126224374999,-0.7857315627083311,False,1.552499999999998
mp-1224667,In2 Sb6 P12 O48,68,Monoclinic,7,896.438734915583,3.889710155855703,13.182922572287985,4.31789421,-7.272281607058823,-2.3784556442507,True,2.5289
mp-1223746,In1 Sb3 Pb4 O13,21,Trigonal,160,311.0721684667016,8.0973346129238,14.812960403176268,5.19690494,-6.328405091428571,-1.8369641957936511,False,1.5391
mp-1212067,In4 Sb4 O16,24,Monoclinic,14,288.00607787197475,6.932041572936582,12.000253244665615,5.1518326,-6.398555725833333,-1.951885891944443,True,0.9405999999999991
mp-21365,In4 Sb4 S12,20,Orthorhombic,62,490.59485125450334,4.505408610764415,24.52974256272517,4.24471484,-14.999579464000002,-0.5215987926875011,False,1.476099999999999
mp-20485,In4 Se4,8,Hexagonal,194,246.56121587528438,5.220219864755624,30.820151984410547,3.36411748,-19.1218018175,-0.676726512031248,True,0.459
mp-505357,In16 Se16 I16,48,Tetragonal,88,1946.0997315004192,4.378034780350969,40.54374440625873,1.25105315,-3.412301513125,-0.8192689011284711,True,1.6754
mp-567931,In2 Si2 Te6,10,Trigonal,162,328.8118261873687,5.309731157302806,32.88118261873687,4.4247575900000005,-21.827001367,-0.306195786,False,0.48160000000000003
mp-29236,In4 Te4 Br4,12,Monoclinic,14,441.8291853910968,4.845567388680977,36.819098782591404,1.677117529999999,-3.401741207499997,-0.888599150277774,True,1.735599999999999
mp-504630,In8 Te8 Cl8,24,Monoclinic,14,783.5841971746495,4.710821403891745,32.64934154894373,2.43496978,-18.87422535625,-0.8248074937500001,True,1.6633
mp-29234,In4 Te4 I4,12,Monoclinic,14,501.8935216293466,4.887685241421512,41.824460135778885,2.01067548,-3.170937035833333,-0.695439618611109,True,1.7076
mp-680058,In8 Te8 I56,72,Orthorhombic,33,3386.538631397778,4.43556935253438,47.03525876941358,1.77396367,-2.425226732916668,-0.5840525171759271,False,1.7538
mp-1195597,Ir8 Se36 Br24,68,Tetragonal,88,2070.5481471224944,5.050866250885382,30.44923745768374,0.90881621,-4.147940325441176,-0.6796020390349271,False,1.519299999999999
mp-1196619,Ir8 Se36 Cl24,68,Tetragonal,88,1886.4569763223135,4.604694905304659,27.742014357681082,1.1080446,-16.294481459558824,-0.3864001440625,False,1.5989
mp-1190246,Ir4 Pb4 O14,22,Cubic,227,272.95408154215966,11.082219085189633,12.407003706461802,6.0598042,-6.8561838804545445,-1.425466649999997,False,0.15200000000000002
mp-1188655,Ir8 S12,20,Orthorhombic,60,317.5501599488466,10.053255601186986,15.877507997442331,7.81278112,-26.2522462905,-0.48750546118749805,False,0.7821
mp-27397,Ir2 Br6,8,Monoclinic,12,220.1187053301764,6.516801717706128,27.51483816627205,1.37217708,-4.145793127499999,-0.708474681249999,False,1.5604
mp-568208,Ir4 Cl12,16,Orthorhombic,70,371.0700866400312,5.344511780386393,23.19188041500195,2.03031683,-18.328934545625,-0.624767009999999,False,1.9582000000000002
mp-2437,Ir2 F6,8,Trigonal,167,97.35761479811586,8.501165743894461,12.169701849764483,2.27501168,-16.92002784625,-1.485668521250001,False,1.141099999999999
mp-560553,Ir4 F24,28,Orthorhombic,62,389.7484318339272,5.218436720033019,13.919586851211687,-2.89563611,-11.6932091175,-1.533848953214284,False,0.7714000000000001
mp-1025442,Ir2 I6,8,Monoclinic,12,279.59275108808504,6.80542198998877,34.94909388601063,3.11606414,-3.79358769625,-0.44096969,False,1.3846999999999992
mp-2833,Ir8 S16,24,Orthorhombic,62,405.32579294529916,8.401620928439797,16.888574706054133,7.0936233,-23.31188797208333,-0.502104100624995,False,0.5371
mp-28211,Ir4 S12 Cl44,60,Monoclinic,14,1638.0176088871094,2.750889597216154,27.300293481451824,0.02006494,-3.5213107155,-0.7488118033333331,False,1.8369
mp-1361,Ir8 Se16,24,Orthorhombic,62,476.9405361681865,9.752430302247923,19.872522340341103,5.70876651,-27.418099894583335,-0.423941923958333,False,0.0517
mp-752629,K4 Co8 O16,28,Orthorhombic,59,340.7499251449973,4.307164729492065,12.169640183749904,2.08314511,-6.4796888828571415,-1.452539285321426,False,0.26430000000000003
mp-1192374,K4 Ge12 As12,28,Orthorhombic,62,744.7769294620688,4.296694097415106,26.59917605221674,3.31546458,-4.3393342575,-0.19493127389285703,False,0.6616000000000001
mp-9797,K2 Sb4 Se8,14,Triclinic,2,429.7998461336102,4.6243077833587485,30.699989009543582,2.90966256,-4.097120413571427,-0.7581178259464271,False,1.117299999999999
mp-1211981,K4 Si12 As12,28,Orthorhombic,55,716.3556378490493,3.2278168278811012,25.584129923180335,4.274760459999999,-4.737805398571427,-0.24956376853571302,False,1.413499999999999
mp-1192538,K4 Sn12 As12,28,Orthorhombic,62,852.2939402753487,4.831773241235692,30.43906929554817,4.65508316,-4.126473246785714,-0.24497997746428501,False,0.519199999999999
mp-28769,K2 Sn4 Se8,14,Monoclinic,8,469.6417713515071,4.188869724020158,33.545840810821936,1.48348243,-4.1750736050000015,-0.8701936988035711,False,1.172699999999999
mp-561973,K4 Te8 O24,36,Monoclinic,12,521.8487132056738,4.967720187375412,14.495797589046495,2.95277715,-5.7371875122222225,-1.614326674509258,False,1.0307
mp-690511,K10 Co4 O9,23,Triclinic,1,435.61859685726307,2.937878924952037,18.939938993794048,1.5958238100000002,-5.082856519999999,-1.414203774239129,False,0.34090000000000004
mp-582813,K40 In20 Sb36,96,Monoclinic,14,3492.4334716944445,3.919589681063759,36.37951533015046,3.07220343,-3.040079402395833,-0.44547202305555406,False,0.644699999999999
mp-1224638,K20 Nb2 In2 As12,36,Monoclinic,7,1203.1228655755688,2.893533995818605,33.420079599321355,1.21461957,-3.345397078611111,-0.445679789398148,False,0.9145000000000001
mp-680237,K20 Th6 P20 S72,118,Monoclinic,15,3421.05130712472,2.476621974246818,28.99196022987051,2.19836982,-5.218831105084746,-1.207120059981839,False,2.4587
mp-1224229,K10 Zn4 Sn4 S17,35,Trigonal,160,1028.1992020550306,2.701186557855463,29.37712005871516,0.9521361500000001,-4.119092936857143,-1.183576601571427,False,2.1377
mp-680539,K22 In12 Bi18,52,Triclinic,2,1938.9634660374413,5.138112811501989,37.287758962258486,2.65519096,-2.78212037057692,-0.320181209028843,False,0.028200000000000003
mp-1194660,K22 Cd4 Sb10,36,Triclinic,2,1403.6950429377641,2.9898640859336263,38.99152897049345,1.22397479,-13.625036244444445,-0.5726775039583331,False,0.5584
mp-560465,K11 Li1 Mn4 O16,32,Tetragonal,121,564.3940708049079,2.685502595197144,17.63731471265337,0.27736425,-5.90005671125,-1.8322621154627332,False,1.7462
mp-570411,K48 In8 Se36,92,Monoclinic,14,3188.452586404089,2.936165457084861,34.65709333047923,1.79937974,-3.445596688913043,-1.247423321149003,True,1.5563
mp-14679,K28 Fe8 O26,62,Monoclinic,14,1152.6403285554047,2.820047007394156,18.590973041216206,0.7186433600000001,-5.293701078709679,-1.6149025618225812,False,2.250499999999999
mp-554146,K28 In8 O26,62,Monoclinic,14,1279.3900248249706,3.152999158871172,20.635322981047914,0.52967862,-4.592381632096776,-1.6504666592957,True,1.8384
mp-1195294,K28 Zn2 Ge32,62,Orthorhombic,31,2086.730113635154,2.824992719029521,33.65693731669603,1.47646915,-3.126854000322581,-0.18919705166129003,True,0.8916000000000001
mp-1029850,K30 Cr14 N38,82,Triclinic,2,1484.310945494508,2.722030031256461,18.101352993835462,1.6617161500000002,-6.44000401609756,-0.5139270578963401,False,0.7090000000000001
mp-1029869,K30 Mo14 N38,82,Triclinic,2,1664.5444124251005,3.041028409465275,20.29932210274513,1.57828582,-6.69358604609756,-0.5638940030182911,False,1.3026
mp-1029965,K30 Os14 N38,82,Triclinic,2,1596.013440627579,4.545035688675054,19.463578544238768,3.09758395,-6.322188579756098,-0.127325286920732,False,0.062399999999999005
mp-1029863,K30 Re14 N38,82,Triclinic,2,1628.0097318096368,4.398261893673761,19.853777217190693,3.18784108,-6.840069049634146,-0.43678557527439005,False,0.0478
mp-1030950,K30 W14 N38,82,Triclinic,2,1688.2350537578545,4.208765957408268,20.588232362900666,1.37005102,-7.132106214634145,-0.6417468339939021,False,1.5284
mp-674338,K16 Zr12 Se61,89,Triclinic,1,2696.136890336703,4.025999699298613,30.293672925131492,3.16376311,-5.029861001348315,-1.277895571449087,False,1.3461
mp-558482,K17 Fe5 O16,38,Monoclinic,8,701.6029856947503,2.839865920415009,18.463236465651324,1.73178025,-5.323288730263156,-1.619321166664471,False,2.1335
mp-542749,K4 Mo6 Se36,46,Monoclinic,4,1292.7951115249439,4.591409422024395,28.104241554890084,2.1546477,-5.032442524782611,-0.7834818128994581,False,0.8620999999999991
mp-31012,K4 Nb6 Br18,28,Monoclinic,12,857.1099894679957,4.169420433571146,30.611071052428418,1.15171829,-4.887108203928572,-1.508595819607144,True,1.0786
mp-28501,K4 Nb6 Cl18,28,Monoclinic,12,737.9181037617641,3.042376512476452,26.354217991491574,1.74187649,-5.391437673928572,-1.876899119250001,False,1.086799999999999
mp-541638,K8 Re12 S24,44,Monoclinic,15,968.3587775014405,5.687691984057335,22.00815403412365,4.817138,-6.915473336136364,-1.057542474954544,False,1.469599999999999
mp-541060,K8 Re12 Se24,44,Monoclinic,15,1092.5657467243127,6.751657726118353,24.831039698279834,3.97264083,-6.43045013022727,-0.9229454998693151,False,1.136099999999999
mp-541353,K8 Tc12 S24,44,Monoclinic,15,960.0871024591668,3.905971045241661,21.820161419526517,3.55244949,-13.553318753636363,-0.9950907067613611,True,1.032
mp-541354,K8 Tc12 Se24,44,Monoclinic,15,1084.1625046126396,5.18278017168657,24.640056923014537,2.93202353,-5.93939161318182,-1.001198418051137,True,0.8982999999999991
mp-541915,K8 Ag4 As12 Se24,48,Monoclinic,14,1467.391907636052,4.004098921533341,30.57066474241775,1.28327653,-4.0326954775,-0.6917360118940971,False,1.400999999999999
mp-558500,K4 Ag4 Ge2 S8,18,Orthorhombic,70,466.37250732267154,3.523747712574194,25.90958374014842,1.51527762,-4.122143582777777,-0.8860234797592581,True,1.6880000000000002
mp-1188845,K4 Ag4 Ge2 Se8,18,Orthorhombic,70,527.136905375232,4.299351589694061,29.285383631957334,1.09997989,-3.788861138888888,-0.838273520245369,False,1.077799999999999
mp-570887,K4 Ag4 Sn2 Se8,18,Monoclinic,13,528.2486645190307,4.57994335662116,29.34714802883504,1.59873107,-3.72290588,-0.8404800391342581,True,0.8472000000000001
mp-7494,K4 Ag8 S6,18,Monoclinic,12,412.664805135432,4.8759258979306015,22.925822507524,2.198126,-14.105951545,-0.5987255784374981,True,0.128299999999999
mp-559880,K8 Ag24 Sn12 S40,84,Orthorhombic,60,2077.30486728115,4.483471513893376,24.72981984858512,2.30347541,-4.123786914761896,-0.660326116880943,True,0.7928000000000001
mp-7642,K4 Ag2 As2,8,Orthorhombic,63,238.11941048859254,3.640006601411066,29.764926311074067,1.18862841,-2.8280287525,-0.384078838416666,False,1.0719
mp-27549,K4 Ag2 Bi2,8,Orthorhombic,63,287.2969250319207,4.566620318681974,35.91211562899009,1.32611071,-23.387755965,-0.414086274374998,False,0.6783
mp-1110920,K2 Ag1 Bi1 Cl6,10,Cubic,225,317.69940831376675,3.176633353516061,31.769940831376676,0.49212144,-3.6307720089999993,-1.6220751856166662,False,2.0583
mp-1104293,K4 Ag2 F8,14,Monoclinic,14,241.861109250423,3.598414259607373,17.275793517887358,-1.43579802,-4.169531602857143,-2.346519228023809,False,0.6126
mp-9778,K4 Ag2 P2,8,Orthorhombic,63,225.00450196303407,3.203500445683494,28.12556274537926,1.49639947,-11.03760569125,-0.43898535886904705,False,1.232
mp-1111950,K2 Ag1 Rh1 F6,10,Cubic,225,167.78441415141526,3.988046326716506,16.778441415141526,0.0471862,-4.642030201,-2.246720276616666,False,1.4182000000000001
mp-7643,K4 Ag2 Sb2,8,Orthorhombic,63,274.92413557164514,3.718517510334226,34.36551694645564,1.5618416,-15.27713933125,-0.5024591443749991,False,1.1871
mp-17886,K16 Al16 Sb24,56,Monoclinic,14,1811.2989664508568,3.648290127989335,32.34462440090816,3.03278768,-15.150970309285714,-0.491017206071429,False,1.337599999999999
mp-8147,K4 As4 Pd2,10,Orthorhombic,63,283.1039604457924,3.9235308699509712,28.31039604457924,2.01619287,-3.861036971,-0.5044637069000001,False,0.645799999999999
mp-1079513,K4 As4 Pt2,10,Orthorhombic,63,282.52996751149976,4.97372796306747,28.252996751149976,2.53742324,-4.021485168000001,-0.4866616019,False,0.3521
mp-9511,K4 As2 Au2 S8,16,Monoclinic,11,439.30635329850406,3.6162016336172913,27.456647081156504,1.08368221,-4.222644521875001,-0.877621740875,True,0.9987999999999991
mp-1195201,K4 Au2 I10 O30,46,Orthorhombic,36,832.224040424509,4.58790585472247,18.091826965750194,3.18473864,-4.832077940217391,-1.03311708823913,True,1.9927000000000001
mp-4351,K4 B4 S14,22,Monoclinic,15,505.66047732190395,2.129764951846263,22.984567150995634,1.69905014,-5.025463000909091,-0.9718230045757561,False,2.5194
mp-542637,K4 B4 Se14,22,Monoclinic,15,591.8123068888374,3.66185638639651,26.900559404038063,1.208417,-4.453305875454544,-0.8084964817490511,False,1.6406
mp-863761,K4 Ba2 Cd2 Sb4,12,Orthorhombic,26,441.7409275687037,4.296286030416283,36.81174396405864,2.50513889,-2.9118234283333333,-0.6785355857499991,False,0.15000000000000002
mp-1212599,K16 Ba8 Nb16 S88,128,Monoclinic,14,3400.0681634764405,2.946133268628598,26.56303252715969,2.47810479,-5.666190484296875,-1.297048002546874,True,0.9839000000000001
mp-27915,K8 Be4 O8,20,Monoclinic,14,318.50525890128915,2.48597272935165,15.925262945064457,0.31879316,-5.2799489895,-2.1003341254,False,2.9234
mp-1202167,K4 Bi2 I10 O30,46,Orthorhombic,39,826.5904323737202,4.667443836550646,17.969357225515658,1.79609249,-5.007473408478261,-1.181723325630435,False,2.9708
mp-28800,K2 Bi8 Se13,23,Monoclinic,12,705.0161079618767,6.539594691555231,30.652874259212034,2.68047493,-4.219093732173914,-0.791708378476904,False,0.8361000000000001
mp-1084770,K4 Bi2 Au2,8,Orthorhombic,63,284.31098475303514,5.655351733004543,35.53887309412939,1.719278109999999,-30.80086208375,-0.519921641875001,False,0.8705
mp-989591,K2 Br1 Cl6 F1,10,Cubic,225,259.4081095787298,2.495320457366353,25.94081095787298,0.26679446,-2.8432724240000002,-1.15279290845,True,0.9144
mp-557832,K4 Cd2 Au8 S8,22,Orthorhombic,72,574.9169770871415,6.393183400980291,26.132589867597343,1.55380255,-3.739282876363636,-0.7509450667727261,False,2.032899999999999
mp-7534,K4 Cd4 O6,14,Monoclinic,14,257.00605812411413,4.535901711324128,18.357575580293865,0.27050279,-4.123469275,-1.405377440642856,True,0.6513
mp-571637,K24 Cd24 Te36,84,Monoclinic,14,3146.506426838055,4.343211511741299,37.45840984331018,2.37722358,-2.849144075595238,-0.904475860523808,False,1.882299999999999
mp-18101,K8 Cd12 S16,36,Orthorhombic,62,954.7885720764292,3.782273258427136,26.52190477990081,0.87363415,-12.619109103055557,-1.008943850694444,False,1.9018000000000002
mp-1198419,K8 Cd12 Se16,36,Orthorhombic,62,1065.6002399202484,4.558188684746677,29.600006664451346,0.37056068000000003,-3.156666976388888,-1.031509651263887,True,1.4027999999999992
mp-1212732,K16 Cd8 Ge8 O32,64,Orthorhombic,29,1129.0687780004698,3.85027696838574,17.64169965625734,-0.33521278,-5.386104859843749,-1.931402171031249,False,2.3122
mp-27742,K8 Cd4 O8,20,Orthorhombic,60,383.6909196532737,3.853587403206948,19.184545982663685,0.29642755,-4.03070441,-1.406970080899999,False,1.3562
mp-2046082,K4 Cd2 Pb2,8,Orthorhombic,63,311.54945386638866,4.240579160659872,38.94368173329858,1.6947330999999992,-22.37724608375,-0.270583665624997,False,0.1648
mp-541538,K16 Cd8 Si8 O32,64,Orthorhombic,29,1057.642033940695,3.550683017886349,16.52565678032336,1.39439909,-5.901250340468749,-2.3462613797812493,False,2.9406
mp-1079679,K4 Cd2 Sn2,8,Orthorhombic,40,313.3094438888554,3.278764613103462,39.16368048610693,1.60666747,-2.0085791425,-0.200498769874998,False,0.059499999999999005
mp-2043826,K4 Cd2 Sn2,8,Orthorhombic,63,303.43952593813856,3.385412346654306,37.92994074226732,1.73720052,-14.51304024875,-0.291115413125,False,0.04820000000000001
mp-1194826,K8 Cd4 Sn4 S16,32,Monoclinic,15,951.7439816019258,3.053824194384999,29.741999425060182,1.20594157,-4.06308504875,-1.089865078687498,True,1.4957
mp-1079645,K2 Cd1 Sn1 Se4,8,Tetragonal,121,242.7105356810374,4.277105708118633,30.338816960129677,1.3471954,-3.7049404225,-1.052944497359374,False,1.6721
mp-1206020,K2 Ce1 Cu2 S4,9,Monoclinic,12,205.19351855678445,3.833155054299625,22.79927983964272,3.87394972,-5.067874774444444,-1.406592449388887,False,0.5588999999999991
mp-558886,K6 Ce3 N18 O54,81,Trigonal,147,1038.7757934467636,2.83108046944978,12.824392511688439,0.47196109,-6.8390429208641965,-1.383759443993826,True,1.396799999999999
mp-1181165,K2 V2 H8 O14,26,Triclinic,1,334.6445738712368,2.045052741615885,12.870945148893723,1.81443274,-6.021632931538462,-1.526889194403846,False,2.8415
mp-1080848,K16 V16 N32,64,Orthorhombic,61,1052.2594266475066,2.9807394727621492,16.44155354136729,1.7260073,-7.6451640409375,-0.9222062202500001,False,0.8734000000000001
mp-16812,K4 V4 P8 O28,44,Monoclinic,14,614.1379413428945,2.855086851443126,13.957680485065783,1.56992281,-7.803555713636364,-2.741560270139611,False,2.0781
mp-555364,K4 V4 S8 O36,52,Orthorhombic,19,762.0976389588762,2.5986887199689432,14.655723826132235,0.40016192,-6.914713957884615,-2.066741344596153,True,1.8958
mp-531952,K8 W24 Br56,88,Orthorhombic,48,2934.512924223107,5.205717759509024,33.346737775262575,3.5395456,-5.743899960340909,-1.065319400545453,False,2.617099999999999
mp-758742,K2 Y2 H16 N8,28,Monoclinic,15,326.6042171873497,1.953314471318325,11.664436328119633,-0.44000853,-5.512979613571429,-0.6447722055178571,False,2.6774
mp-1223315,K1 Y1 Nb6 Cl18,26,Trigonal,146,662.5439328920205,3.317340135971778,25.482458957385404,2.3086881200000002,-5.8091850361538455,-1.9044903491249991,True,1.1149
mp-571057,K4 Y4 P8 Se24,40,Orthorhombic,19,1130.999280103488,3.897859823693744,28.2749820025872,2.6526367200000003,-5.012375053249999,-1.06768733930982,True,1.938699999999999
mp-11602,K2 Y4 Cu2 S8,16,Orthorhombic,63,368.91599320845177,3.679368190258968,23.057249575528235,3.42943155,-6.24707822375,-1.896803515906249,False,1.011499999999999
mp-1211247,K2 Y2 Be2 F12,18,Monoclinic,11,249.14015704816862,3.345960131729075,13.841119836009367,5.0255082,-6.414535963333333,-3.874203925805555,True,9.999999999976698e-05
mp-863755,K2 Y2 Ge2 S8,14,Monoclinic,4,364.88824409833336,2.993564188900987,26.06344600702381,1.92898783,-5.643322264285715,-1.526618357464285,False,2.423
mp-1006888,K1 Y1 S2,4,Trigonal,166,103.6153162731448,3.079141902746625,25.9038290682862,1.75555334,-12.773486895,-2.173021129843748,False,2.3221
mp-863754,K2 Y2 Si2 S8,14,Monoclinic,4,347.19613912573936,2.719924844717446,24.7997242232671,2.03802674,-11.239949410714287,-1.633431436428572,False,2.806199999999999
mp-16763,K1 Y1 Te2,4,Trigonal,166,142.92997494795227,4.452008487302704,35.73249373698807,2.93610426,-5.084337655000002,-1.602569402645834,False,1.2981
mp-863678,K1 Zn4 Sb3 O12,20,Trigonal,146,261.2016218398333,5.45461509363759,13.060081091991666,2.39555922,-5.816968136,-1.9203241388624992,False,1.6514000000000002
mp-1087504,K1 Zn4 P3,8,Trigonal,166,159.46480583524456,4.099214719602042,19.93310072940557,3.11202373,-8.97495194625,-0.39158903470982204,False,0.5011
mp-7421,K2 Zn2 As2,6,Hexagonal,194,156.9252270728866,3.797333337471321,26.154204512147768,1.55707252,-2.819038701666667,-0.465293413249999,True,0.2742
mp-7437,K2 Zn2 P2,6,Hexagonal,194,145.09795638635967,3.100961610188546,24.182992731059944,1.98868598,-8.553498718333334,-0.576517767242063,True,0.839599999999999