material_id,composition,nsites,crystal_system,space_group,volume,density,density_atomic,efermi,energy_per_atom,formation_energy_per_atom,is_gap_direct,band_gap
mp-779716,Cs16 Ge4 O16,36,Monoclinic,14,870.8630599381061,5.096878735546042,24.19064055383628,1.67218676,-4.9728772730555555,-1.856568144568966,False,2.8954999999999993
mp-1200610,Cs16 Ge4 Te24,44,Monoclinic,14,2063.7926724756835,4.408793727587757,46.904378919901895,1.99880744,-3.396724186818182,-0.9317447780564261,False,1.0706
mp-1200567,Cs8 Hf6 Se28,42,Monoclinic,15,1466.0388208225918,4.921525799605649,34.90568621006171,2.79556241,-5.28012346,-1.35411212387777,False,1.6893999999999991
mp-771139,Cs16 Hf4 O16,36,Monoclinic,14,952.6223830585074,5.397475163307956,26.461732862736316,1.06361552,-6.042380742777776,-2.333387039291186,False,2.7399
mp-1190726,Cs8 In4 S10,22,Triclinic,2,784.9370394594698,3.8992280353607383,35.67895633906681,1.39986118,-18.124066841363636,-1.236249734914772,True,2.1801
mp-1225983,Cs4 In1 Sb1 Cl12,18,Tetragonal,123,628.9716401418322,3.151300890713427,34.94286889676845,-0.40642988,-3.651583188888888,-1.8347721408492972,False,1.0907
mp-561672,Cs4 Ir1 O4,9,Monoclinic,12,224.02147475325162,5.839766631081034,24.891274972583513,3.19521005,-5.030117486666667,-1.445429877624522,False,0.3652
mp-728544,Cs8 La2 N16 O48,74,Monoclinic,14,1253.4862249912026,3.090786593772658,16.939003040421657,-0.5749145800000001,-6.611938130945946,-1.368013712935694,False,0.351099999999999
mp-1192853,Cs8 Mn2 As4 S16,30,Triclinic,2,1010.263306429936,3.264074837670794,33.675443547664536,2.91926523,-4.672423335666666,-0.9896868571034481,False,1.0343
mp-2646913,Cs8 Mn2 Sb4 Cl24,38,Trigonal,166,1270.894697131325,3.280890425750947,33.44459729292961,1.42059619,-4.101693742894736,-1.82619681376588,True,2.0025
mp-1226457,Cs16 Mn12 O24,52,Monoclinic,3,1126.5791602662105,4.672072443497771,21.664983851273277,3.38227307,-6.452098703076921,-1.774735457877982,False,1.2663
mp-1200810,Cs16 Nb8 S44,68,Orthorhombic,29,2202.406051970629,3.227425138093645,32.38832429368572,2.9762006,-5.3279706825,-1.248177999918863,True,1.4593
mp-1202549,Cs16 Os8 Cl40 O4,68,Orthorhombic,61,2161.7923556307073,3.9408521580370213,31.791064053392756,0.970314,-4.588661165882352,-1.675717980801217,True,0.8307
mp-866688,Cs8 P4 Pd2 Se16,30,Monoclinic,14,1105.7210271199765,3.999723066991966,36.857367570665886,1.15626143,-4.164328923,-0.990326858777093,False,1.392
mp-569193,Cs8 P4 Se18,30,Monoclinic,15,1096.252121966787,3.951081147757518,36.5417373988929,0.77771965,-17.31052599,-0.8277255431676581,True,1.5543
mp-574070,Cs16 Pb36,52,Monoclinic,14,2380.2578572451835,6.687262087104349,45.77418956240737,3.47023545,-3.037349943653846,-0.18767810431697401,False,0.9064999999999991
mp-542099,Cs16 Pb4 O16,36,Monoclinic,14,972.7604488890792,5.481772994643944,27.021123580252198,1.32327513,-4.517181267777776,-1.5020255598467411,True,2.034399999999999
mp-1192677,Cs4 Pr6 Os1 I13,24,Monoclinic,12,1121.3230593414478,4.764056905861709,46.721794139226986,3.59527097,-4.179356436666667,-1.535845167650862,False,0.050100000000000006
mp-1213695,Cs8 Rb4 Fe4 O10,26,Monoclinic,12,666.9680472843214,4.45277035370591,25.652617203243132,1.960557259999999,-5.054066025769231,-1.417694804893899,False,1.4865
mp-652494,Cs8 Re12 S26,46,Monoclinic,15,1184.4045987953805,5.792260818183647,25.747926060769142,3.31916669,-6.79231560521739,-1.047999522440029,False,1.395899999999999
mp-650137,Cs8 Re12 Se26,46,Monoclinic,15,1328.8761068951653,6.6861205285507666,28.888611019460114,2.75823961,-6.310810001521742,-0.929616752134326,True,1.002199999999999
mp-679984,Cs16 Ru8 Cl40 O4,68,Orthorhombic,61,2161.032683438757,3.394152629297163,31.77989240351113,0.5212823400000001,-4.391970638382353,-1.708788028595334,True,0.6222
mp-553374,Cs4 Sb2 O5,11,Monoclinic,8,299.647198836,4.7388775963920065,27.240654439636362,1.6630453200000002,-5.131400656363638,-1.801426312147338,True,2.5754
mp-771255,Cs16 Si4 O16,36,Monoclinic,14,836.631372649209,4.951697480912879,23.239760351366915,2.15931908,-5.408581192499999,-2.203128711235632,False,2.8227
mp-29834,Cs32 Si8 Se32,72,Cubic,218,2936.7198396637027,3.960556234993768,40.78777555088476,0.93656231,-3.850603353055552,-1.290506217277295,True,2.215099999999999
mp-574224,Cs32 Si8 Te32,72,Cubic,218,3566.9514635919804,3.9853752042580792,49.540992549888614,3.01543043,-24.473635776944445,-1.042916461944442,True,1.7759
mp-1226308,Cs8 Sn42 Hg4,54,Orthorhombic,40,1891.568376626143,6.014615551544511,35.02904401159524,4.55317666,-3.460353625000001,-0.184343872726693,False,0.2411
mp-505014,Cs8 Sn4 Te14,26,Monoclinic,15,1255.3529738159982,4.397516104598284,48.2828066852307,1.66207218,-3.484840352307694,-0.896056102714413,True,1.1412
mp-17213,Cs16 Sn4 O16,36,Monoclinic,14,946.7438502255224,5.011585287650842,26.298440284042286,1.51835006,-4.792151245277777,-1.744003894568965,False,2.4607
mp-1181839,Cs4 Sr1 Sn3 Se9,17,Trigonal,146,647.4297994298098,4.324312034655128,38.08410584881234,1.193342659999999,-4.081555203529412,-1.21001066027732,True,1.592099999999999
mp-579058,Cs8 Tc12 S26,46,Monoclinic,15,1176.1849660566147,4.338370634183361,25.5692383925351,3.28125374,-16.65351087304348,-0.9719120744157601,False,0.9889999999999991
mp-680198,Cs16 Th8 P20 Se68,112,Monoclinic,14,3694.5509471374316,4.481774240629887,32.98706202801278,1.64999801,-4.845231848571422,-1.096392936845662,False,1.3123
mp-542011,Cs8 Ti6 S28,42,Monoclinic,15,1176.9121339463745,3.172142404220628,28.02171747491368,2.26603816,-5.411602323333333,-1.351820405410507,True,1.2347000000000001
mp-650007,Cs8 Tl2 Sb2 Cl24,36,Tetragonal,141,1169.789728854278,3.643057409233974,32.494159134841055,-0.08657535,-3.53268154888889,-1.7374094801085591,True,0.7270000000000001
mp-1198094,Cs8 U2 Ge16 O40,66,Monoclinic,14,1137.7400179798965,4.876966754431835,17.238485120907523,3.73018401,-6.8870793192424244,-2.315359221321839,False,0.012199999999999002
mp-572715,Cs8 U4 V4 O26,42,Orthorhombic,59,869.2563196320137,5.033846091664702,20.69657903885747,0.91825509,-8.081556727857143,-2.905078846600984,True,2.087799999999999
mp-562961,Cs4 U3 Mo3 O20,30,Triclinic,1,602.6553409747803,5.107125768263568,20.08851136582601,0.62254166,-8.398351518,-2.764941159954023,False,2.0623
mp-1192638,Cs4 U3 Si4 O17,28,Monoclinic,12,497.65932369982664,5.438952978104518,17.77354727499381,4.83328239,-8.375374818214286,-3.256705192629312,False,0.023500000000000004
mp-4393,Cs16 U20 O68,104,Orthorhombic,60,2087.14118382171,6.344966051423414,20.068665229054904,2.23244543,-8.884732534038461,-3.3384134026392562,False,1.5681999999999992
mp-573096,Cs8 U2 C6 O22,38,Monoclinic,15,756.8060372187977,4.307871845387106,19.915948347863097,0.163463399999999,-7.560923068684209,-2.453718446374771,True,2.0837
mp-1019612,Cs16 Zn4 O12,32,Monoclinic,14,852.3138845340536,5.026767183526895,26.634808891689175,1.694730289999999,-3.8827734412500003,-1.4158313279525871,False,1.6802000000000001
mp-680246,Cs8 Zr6 S28,42,Monoclinic,15,1249.9837615510462,3.332290360978772,29.761518132167765,1.92658565,-5.611996930952381,-1.459042353981937,True,1.466
mp-768674,Cs8 Zr6 Se28,42,Monoclinic,15,1414.9327858160682,4.484804034791256,33.68887585276353,1.32705963,-18.804666053809523,-1.231093151517855,True,1.5266000000000002
mp-667336,Cs16 Zr12 Te64,92,Monoclinic,14,3765.616267481155,5.021625200428186,40.93061160305603,3.67158317,-4.4928616621739135,-1.033387468055971,False,1.1555
mp-1203593,Cs8 Zr12 B2 Br34,56,Tetragonal,113,1956.2010387701728,4.156260029663905,34.93216140661023,1.5359984,-5.073203371964285,-1.879432053135263,False,1.0312
mp-28543,Cs16 Zr4 O16,36,Monoclinic,14,952.7331833891893,4.7884563310757,26.464810649699704,0.99114236,-5.8255639775,-2.273180096235632,False,2.7365
mp-1199840,Cs10 As2 P8 Se24,44,Tetragonal,84,1575.6223012508271,3.816917620818804,35.809597755700615,1.29960644,-4.193007086136363,-0.8828778944305581,False,1.4867
mp-1197848,Cs20 As20 Se36,76,Orthorhombic,62,2889.6316403713445,4.022063069321195,38.02146895225453,1.36490063,-3.990873772105263,-0.8669946240457691,True,1.2854
mp-1201412,Cs20 Fe4 O16,40,Monoclinic,14,1064.634860905798,4.893609413673144,26.615871522644948,3.39571796,-4.730160833249999,-1.4499855250775862,True,1.3283
mp-1193337,Cs10 Ga6 Se14,30,Monoclinic,12,1108.3334863840057,4.2742007766289465,36.94444954613353,2.79897671,-18.559037575999998,-1.222269944895833,True,2.0982
mp-616141,Cs20 Ge4 As12,36,Orthorhombic,62,1444.5703932574495,4.422977991713754,40.126955368262486,2.59006214,-2.942198131388889,-0.367388875363985,True,0.5621
mp-582182,Cs40 In24 As32,96,Monoclinic,14,3596.0996296784033,4.8343349686117,37.45937114248337,3.60842324,-3.032848359999999,-0.40802342568965505,False,0.9419000000000001
mp-1203906,Cs10 Na2 W8 N20,40,Tetragonal,80,908.3127301560013,5.714616855039874,22.707818253900033,1.81168782,-7.721678668000001,-0.666833317982759,False,1.850099999999999
mp-556239,Cs5 Nb2 S4 Br9,20,Orthorhombic,71,736.361712081102,3.828494799364623,36.8180856040551,1.05055501,-4.470257051,-1.668834300163793,False,1.775
mp-621112,Cs5 Nb2 S4 Cl9,20,Orthorhombic,71,631.7617739123629,3.410848005830306,31.588088695618143,1.54184997,-4.777992601499998,-1.8813515314137912,False,1.7925
mp-1228296,Cs10 Re12 S16 Cl14,52,Trigonal,161,1614.2881522220532,4.70393910765178,31.044002927347176,1.06411758,-6.295037948846153,-1.4767591320490712,True,2.6061
mp-628742,Cs20 Sb32,52,Monoclinic,14,2387.468645211907,4.558755357346451,45.91285856176744,3.12325417,-25.962854092307694,-0.486485566153847,True,0.5845
mp-554842,Cs10 Si6 Ag2 O18,36,Monoclinic,11,770.9639461182352,4.310480956404687,21.415665169950977,2.35567081,-6.2897787844444455,-2.501421636385697,True,2.821499999999999
mp-616140,Cs20 Si4 As12,36,Orthorhombic,62,1423.445881757865,4.280714274829153,39.540163382162916,2.82762907,-3.04292963888889,-0.37897703008620803,True,0.6071999999999991
mp-1182756,Cs10 Tc12 S16 Br14,52,Trigonal,167,1737.1144344140473,3.954394546202946,33.406046815654754,0.76591657,-5.6842799880769235,-1.4046944570490711,False,1.7601
mp-1188281,Cs10 Te6,16,Tetragonal,87,797.1075772388147,4.363596281292958,49.819223577425916,1.657665269999999,-26.413471936875,-1.189229695624998,False,0.511999999999999
mp-1197467,Cs20 Th4 P12 S48,84,Monoclinic,14,2733.8659991007285,3.338895742669412,32.5460237988182,1.71561118,-5.029635825595238,-1.321993849985925,True,2.0219
mp-16000,Cs10 Ti12 Ag2 Se54,78,Trigonal,159,2431.7487375566284,4.358706425040197,31.17626586611062,2.01047744,-4.994287231538462,-1.170046525723686,True,0.590399999999999
mp-1178399,Cs12 Br8 O2,22,Trigonal,167,957.1205359397437,3.931522901595119,43.50547890635199,1.0133613,-3.363835446818182,-1.8235070316300952,True,1.8137999999999992
mp-773199,Cs12 Co4 O14,30,Monoclinic,14,702.7838163161985,4.854589070179124,23.42612721053995,1.518732969999999,-5.091632015333334,-1.46827028886207,False,1.1644
mp-1193081,Cs12 Cr4 O14,30,Monoclinic,14,703.6861400161625,4.78288426184609,23.45620466720542,2.33881964,-5.817095477333336,-1.857782984195404,False,1.643999999999999
mp-1197810,Cs6 Dy21 S34 Cl1,62,Monoclinic,12,1745.5193896070632,5.075833115985953,28.153538542049407,1.84994339,-6.258867561129032,-2.307472083515015,False,1.9469
mp-1203042,Cs6 Dy21 Te34 Cl1,62,Monoclinic,12,2366.7183656475227,6.022563444807182,38.172876865282625,3.04784189,-5.080517085806452,-1.674796203703187,False,0.885599999999999
mp-9697,Cs12 Ga2 Sb6,20,Monoclinic,11,909.0665886610797,4.502437272206572,45.45332943305398,2.52816496,-24.499384914,-0.578140799999999,False,0.44110000000000005
mp-1178450,Cs12 Ge4 O14,30,Monoclinic,14,702.3361891476753,4.9873115300541055,23.411206304922512,4.03721914,-5.239540877333331,-1.950897666195401,True,2.9085
mp-1199243,Cs6 Ho21 S34 Cl1,62,Monoclinic,12,1697.1458384878486,5.2704448768668914,27.37331997561046,1.90759506,-6.252733826451616,-2.308348305773081,False,1.9586000000000001
mp-1201961,Cs6 Ho21 Te34 Cl1,62,Monoclinic,12,2303.3284169164845,6.225104451100769,37.15045833736265,3.11963728,-5.063697628225808,-1.664986703058026,False,0.8943999999999991
mp-22506,Cs12 In2 As6,20,Monoclinic,11,818.661617799038,4.612549641904309,40.9330808899519,2.52680453,-2.569639348000001,-0.347898671709772,False,0.49699999999999905
mp-17120,Cs12 K6 Al2 Sb8,28,Hexagonal,194,1267.4483099086829,3.743732602582391,45.266011068167245,2.368129719999999,-2.544105218214285,-0.46527983390578803,True,0.6537000000000001
mp-541811,Cs12 K6 Ga2 Sb8,28,Hexagonal,194,1264.2580120974235,3.865457245251812,45.152071860622264,2.19089454,-2.493774382857143,-0.46619755622721704,True,0.6366
mp-1199290,Cs24 U8 Cu48 S60,140,Cubic,230,3542.901737359408,4.718850537832789,25.30644098113863,3.453975,-5.040948321285714,-1.0610466357266,True,0.517199999999999
mp-1195078,Cs6 U5 As4 O28,43,Triclinic,2,859.7698334429062,5.282790920869579,19.99464728936991,2.78701204,-7.893657858837209,-2.797650562510023,False,2.0327
mp-619101,Cs18 Zn3 Ge24,45,Orthorhombic,42,1692.0002236621997,4.251337793439315,37.6000049702711,2.50559446,-3.107487976888889,-0.19469918541762501,False,0.9495999999999991
mp-1195066,Cs14 Fe8 S16,38,Monoclinic,15,1242.6183817907583,3.769066348423297,32.700483731335744,2.37135711,-4.907025840263156,-1.046878241715061,False,0.2416
mp-581533,Cs28 In16 Bi24,68,Triclinic,2,3089.47228200589,5.683330061503176,45.43341591185133,3.10079838,-2.724849477794118,-0.328805723338405,True,0.3083
mp-510075,Cs7 Au5 O2,14,Orthorhombic,71,504.585054025631,6.407941555522056,36.04178957325936,1.6226551200000001,-3.030814789285711,-0.7007308605418691,False,0.803199999999999
mp-573073,Cs14 Cu12 F38,64,Monoclinic,14,1124.784117770291,4.938531293608619,17.574751840160797,0.25146632,-11.7580388090625,-2.375711369999999,False,0.516999999999999
mp-1204347,Cs28 Mo32 As4 O120,184,Orthorhombic,73,3693.2443548374504,4.051504375336134,20.07198018933397,0.12662972,-7.453734182880434,-2.100908170817091,True,2.9731
mp-1199908,Cs28 Na4 Si32,64,Cubic,205,2523.5235867122483,3.100640462043137,39.43005604237888,1.96441599,-3.2193486525,-0.025591901810345003,False,1.5773000000000001
mp-631378,Cs14 Nb2 In6 As10,32,Triclinic,2,1298.5119231900583,4.45612863382078,40.57849759968932,2.57959528,-3.437228564999998,-0.431898444692886,False,1.13
mp-1229160,Cs16 Re24 S54,94,Monoclinic,4,2538.0216654005912,5.448042961885681,27.000230482985014,4.38239325,-6.757855168617021,-1.047708373398752,False,1.429799999999999
mp-1202213,Cs16 Ga22 Cl2,40,Trigonal,167,1530.335458711471,4.04876467181298,38.25838646778677,1.6298949,-2.4876544505,-0.36658346998706903,True,0.925999999999999
mp-1196865,Cs16 In4 O14,34,Monoclinic,14,904.3321893402975,5.159277836493445,26.59800556883228,1.88651414,-4.333115744117644,-1.5438277979749802,False,1.8541
mp-561017,Cs8 Tl8 O1,17,Trigonal,148,759.5831723697163,5.933802889179824,44.68136308057154,2.9605339600000002,-2.141039131176472,-0.306712160524008,False,0.206299999999999
mp-1198953,Cs72 Nb16 As48,136,Orthorhombic,61,5734.468324120602,4.242782964970233,42.16520826559266,2.62093313,-3.743658784852941,-0.42629740790568005,True,0.3195
mp-1201016,Cs36 Fe8 Se28,72,Cubic,198,2953.9983219445803,4.183524403091198,41.0277544714525,1.77624959,-3.858615796805555,-1.103992413655712,False,0.512999999999999
mp-863760,Cs1 Ac1 Te2,4,Cubic,225,151.04707301940542,6.76217428475012,37.761768254851354,5.00169031,-37.6117859375,-1.466690679375005,False,0.8775000000000001
mp-558217,Cs2 Ag2 N4 O12,20,Monoclinic,12,335.2933578357067,3.613177288325302,16.764667891785333,-0.10440975,-6.07152504,-1.060001363132184,False,2.6458
mp-866615,Cs4 Ag8 As4 S12,28,Monoclinic,14,794.8136593708942,4.343555017706292,28.38620212038908,1.85968855,-4.033274874285714,-0.6505528511412141,False,1.65
mp-1193928,Cs4 Ag8 Bi4 S12,28,Monoclinic,14,787.4198530881331,5.515172547093427,28.12213761029047,2.40805604,-3.957878613928571,-0.6865977654269291,False,1.0635
mp-561902,Cs2 Ag6 S4,12,Monoclinic,12,293.3923510647304,5.893426619195396,24.449362588727535,2.5601477900000003,-18.03796068,-0.496946913437499,False,0.41140000000000004
mp-16234,Cs2 Ag6 Se4,12,Monoclinic,12,317.91797450892597,6.418543062555712,26.493164542410497,2.19822186,-3.320498514166665,-0.58239625405711,True,0.19179999999999903
mp-1213692,Cs2 Ag6 Te4,12,Monoclinic,12,365.8934997864325,6.459925338721122,30.49112498220271,3.5707187,-23.8238774575,-0.48878861499999904,False,0.40340000000000004
mp-10480,Cs4 Ag20 Se12,36,Tetragonal,136,919.8032363720109,6.565056221432243,25.550089899222527,2.21127367,-3.316334954722222,-0.47073491083552704,False,0.012399999999999
mp-9206,Cs4 Ag20 Te12,36,Tetragonal,136,1008.0507425298601,6.951816120132551,28.001409514718336,3.47430563,-23.489845150555553,-0.36323274444444503,True,0.020099999999999
mp-1198931,Cs4 Ag28 S16,48,Tetragonal,85,1064.0232566968502,6.34388748972142,22.16715118118438,2.96920018,-17.54268863354167,-0.314389521562498,True,0.49639999999999906
mp-567558,Cs2 Ag2 Cl4,8,Tetragonal,129,253.25469689040528,4.087239009574687,31.65683711130066,0.34800179000000003,-16.08968756125,-1.397385576249998,False,2.200999999999999
mp-8666,Cs4 Ag4 O4,12,Tetragonal,139,327.12422955475057,5.213697371306408,27.26035246289588,0.9546452400000001,-3.8893903125000002,-0.9897648946072791,True,1.4719
mp-1096933,Cs2 Ag2 O4,8,Orthorhombic,63,194.1796789374116,4.665259672390486,24.27245986717645,-0.06537631,-4.4177079175,-1.005998602830459,False,1.1055
mp-865980,Cs4 Ag4 P4 Se12,24,Monoclinic,14,777.668842630915,4.344243435379738,32.40286844295479,1.42405846,-4.024498727083333,-0.7488115259159911,False,1.4308
mp-18105,Cs4 Ag4 Se16,24,Orthorhombic,19,764.0086919604203,4.839100516572268,31.833695498350846,1.3113666,-3.668595408749998,-0.712835215532804,False,1.2669000000000001
mp-634446,Cs2 Al2 H16 N8,28,Tetragonal,85,296.47233304106084,2.508990099023761,10.588297608609315,0.70045585,-7.445560481785714,-0.588670965714285,False,2.9105
mp-1189272,Cs4 Al4 Te12,20,Monoclinic,14,828.4397309046539,4.351085130486324,41.42198654523269,2.87389013,-22.4229650635,-0.8045202115000021,False,1.3209
mp-645172,Cs8 As16 Se24,48,Orthorhombic,62,1547.1589055805277,4.461668021260567,32.23247719959433,2.36127656,-4.158794992499996,-0.7028021477810671,False,1.6457000000000002
mp-554229,Cs2 As6 O16,24,Monoclinic,15,354.382079447938,4.551395247943797,14.765919976997417,0.84670766,-6.30965879875,-1.767822698096265,True,2.2357
mp-776093,Cs4 As4 O12,20,Orthorhombic,57,380.39607043350026,4.467005398017112,19.019803521675012,-0.07474869,-5.973052514499997,-1.888655890931032,False,2.8702
mp-581864,Cs8 As8 Se16,32,Monoclinic,14,1132.0052975561841,4.292116084508582,35.375165548630754,1.04330848,-4.003941053125001,-0.861460288585669,False,1.625
mp-2667,Cs1 Au1,2,Cubic,221,78.55971856017129,6.97259852405392,39.279859280085645,1.12257061,-38.20726542,-0.360558844999999,False,1.023299999999999
mp-1200560,Cs2 Au2 I8 O24,36,Triclinic,2,666.3132442204599,5.131208956332017,18.50870122834611,1.36928143,-4.787411666666667,-0.9177759949808431,False,1.934499999999999
mp-555376,Cs4 Au4 S8 O32,48,Monoclinic,14,845.3338222618515,4.101559668542778,17.611121297121908,1.03295578,-6.025853057291666,-1.688997495179597,True,1.5932
mp-554737,Cs2 Au4 F14,20,Monoclinic,15,371.3516980950573,5.9009785115202025,18.567584904752866,-2.47715576,-16.4166158475,-1.6005589525000001,False,1.796199999999999
mp-9384,Cs1 Au3 S2,6,Trigonal,164,180.3314595933318,7.255512245349284,30.0552432655553,0.97725224,-32.724318911666664,-0.568763642604167,False,2.3501
mp-9386,Cs1 Au3 Se2,6,Trigonal,164,189.23059967601438,7.737327233884612,31.53843327933573,0.90649179,-34.787762703333335,-0.540020384687499,False,2.1741
mp-569548,Cs2 Au2 Br6,10,Tetragonal,139,349.55602409760155,5.411530359731257,34.955602409760154,0.06261637,-3.037363019,-1.218823183931034,False,0.653
mp-23484,Cs2 Au2 Cl6,10,Tetragonal,139,305.9137536017616,4.735835795145365,30.59137536017616,0.34549661,-20.024348033000003,-1.194202064500001,False,0.5386000000000001
mp-1095499,Cs2 Au2 Cl8,12,Monoclinic,15,390.3760191474869,4.012796408477659,32.53133492895724,-1.2601803,-17.794233365,-1.077038575,False,1.8897