material_id,composition,nsites,crystal_system,space_group,volume,density,density_atomic,efermi,energy_per_atom,formation_energy_per_atom,is_gap_direct,band_gap
mp-550805,Lu1 Bi2 Cl1 O4,8,Tetragonal,123,134.12530399892336,8.57199460348832,16.76566299986542,3.7831892700000003,-6.72475308125,-2.481985219583334,False,1.461799999999999
mp-550635,Lu1 Bi2 I1 O4,8,Tetragonal,123,147.7127098202603,8.81156484290883,18.464088727532538,4.3971935,-6.53657030875,-2.334368720208334,False,1.4425
mp-1190663,Lu4 Cr4 B16,24,Orthorhombic,55,226.01043664032073,7.941039401410469,9.41710152668003,6.39931599,-7.515905044166666,-0.700521376388888,False,0.20979999999999902
mp-755471,Lu4 Cr4 O12,20,Orthorhombic,62,210.0228117255138,8.695893111836789,10.50114058627569,3.5308888400000003,-9.0573971395,-3.253673551833335,False,2.5313
mp-19360,Lu2 Cr2 O8,12,Tetragonal,141,148.80382346817672,6.4938063812400575,12.40031862234806,1.89611733,-8.447156966666666,-2.7860604761111123,False,0.28499999999999903
mp-1222325,Lu2 Cu2 Pb2 S6,12,Orthorhombic,36,253.64084115592092,7.095540295499186,21.13673676299341,4.99282134,-5.4686388125,-1.3438688298611101,True,1.5137
mp-1001780,Lu1 Cu1 S2,4,Trigonal,156,77.05730068446398,6.521776914959418,19.264325171115996,4.3898242100000004,-17.831548545,-1.582379958072916,False,1.461999999999999
mp-768505,Lu6 Ga6 O18,30,Hexagonal,185,349.22964111405213,8.350153593190138,11.64098803713507,1.70077721,-7.698665589333334,-3.219932291166668,False,2.8917
mp-1191245,Lu6 H18,24,Trigonal,165,205.1742201125912,8.643211898960123,8.548925838024633,2.6852967100000003,-12.823868815833334,-0.712564469062499,True,0.015600000000000001
mp-1206843,Lu1 H1 Se1,3,Hexagonal,187,46.15017638629439,9.17286694135034,15.383392128764797,4.17794847,-20.206976153333333,-1.591458548159721,False,1.4615
mp-865521,Lu2 I6,8,Hexagonal,194,419.6881369597765,4.3972128258547425,52.46101711997206,-0.08117032,-3.86627545,-1.592844125416666,False,2.1804
mp-542397,Lu4 Mn8 O20,32,Orthorhombic,55,335.60508090052355,7.220763414919025,10.48765877814136,3.21631138,-8.605901381875,-2.657710999066092,True,0.7359
mp-1102,Lu1 N1,2,Cubic,225,26.354606210014218,11.906769120713001,13.177303105007109,4.01818412,-25.82002131,-2.215705882708334,False,0.23309999999999903
mp-1211982,Lu4 Nb24 Cl52 O12,92,Tetragonal,98,2356.4966337677483,3.498778019166817,25.614093845301614,1.19274316,-6.649761446956521,-2.127828529202898,False,0.947099999999999
mp-30457,Lu1 Ni1 Bi1,3,Cubic,216,63.88746627397729,11.504953690274414,21.295822091325764,6.14925575,-36.89971969,-0.71176266055555,True,0.012699999999999
mp-20185,Lu1 Ni1 Sb1,3,Cubic,216,59.9789787951241,9.83993844380987,19.992992931708034,6.76159322,-26.24416223333333,-0.9881912088888831,False,0.214599999999999
mp-30287,Lu4 P4 S16,24,Monoclinic,14,578.9423883530125,3.834256620713034,24.122599514708853,1.95575114,-14.38205547,-1.178396665982141,True,2.179
mp-1222263,Lu1 Pa1 O4,6,Tetragonal,123,74.19868819254614,10.518436071746546,12.366448032091023,5.39100977,-9.844134806666666,-4.201163364444445,False,2.4908
mp-1211006,Lu4 Pt4 F28,36,Monoclinic,14,476.1101840610322,7.017848431854984,13.225282890584229,-1.05890852,-15.201524915,-2.818214611296295,False,2.2198
mp-1205366,Lu4 Rh4 O12,20,Orthorhombic,62,218.14931123596662,9.922030465179358,10.90746556179833,4.55708981,-7.958022456500001,-2.612046788833334,True,1.0887
mp-27246,Lu2 S2 Br2,6,Orthorhombic,59,170.0124448395273,5.605100709700052,28.33540747325455,-0.36488912,-5.788206323333331,-2.355875138055554,True,2.9943
mp-555850,Lu2 S2 F2,6,Trigonal,166,109.29380601214937,6.868318131609888,18.215634335358228,2.1286969,-19.703153546666666,-3.28951780815972,False,2.614099999999999
mp-1237257,Lu4 Sb4 O16,24,Monoclinic,14,287.1481379275332,8.344087409472607,11.96450574698055,3.55651545,-7.631731781666666,-2.8913096627777772,False,2.3432999999999993
mp-662606,Lu4 Ta24 Br52 O12,92,Tetragonal,98,2501.7718897506447,6.232313761492257,27.19317271468092,1.465097839999999,-6.6808005804347825,-1.8178683769855062,False,0.9255
mp-1210736,Lu2 Tl2 W4 O16,24,Monoclinic,15,322.92111988326394,8.999188579219984,13.455046661802664,2.63023714,-8.5418075975,-2.509048591666667,False,2.775
mp-1001604,Lu1 Tl1 S2,4,Trigonal,166,99.82527511955027,7.377053181527015,24.956318779887567,3.91297226,-5.517814364999989,-1.7253446887499901,False,1.3485
mp-1001611,Lu1 Tl1 Se2,4,Trigonal,166,111.50756520656401,8.000877077902372,27.876891301641002,3.53029508,-5.060486024999989,-1.589240393671866,False,1.212899999999999
mp-1017508,Lu1 Tl1 Te2,4,Trigonal,166,134.80898009245905,7.816211962660575,33.70224502311476,4.66634,-4.508371427499995,-1.21342858833333,False,0.7908000000000001
mp-2767717,Lu4 V4 O12,20,Monoclinic,14,215.19981862324127,8.4541479423787,10.759990931162063,5.6569723100000004,-17.378715599,-3.363412194333333,False,0.261099999999999
mp-18993,Lu2 V2 O8,12,Tetragonal,141,150.99900717505648,6.376206224158125,12.583250597921372,0.70353953,-8.777719206666667,-3.211479616111111,False,2.9436
mp-531611,Mg2 Al4 B56,62,Triclinic,1,485.06703863925105,2.608405062546857,7.8236619135363075,6.15030313,-6.4221320732258125,-0.094887193924735,False,0.8259999999999991
mp-8708,Mg2 Au4 F16,22,Monoclinic,14,303.49033538744743,6.239944951229924,13.795015244883974,-2.08983063,-4.16203225181818,-2.026663795909089,False,1.9810999999999992
mp-568803,Mg2 B24 C4,30,Orthorhombic,74,217.5951008007281,2.717643258035155,7.2531700266909365,6.12411503,-6.848313568,-0.165613417999999,False,2.1397
mp-3582,Mg8 B16 C16,40,Orthorhombic,64,380.087796892242,2.444741489642583,9.50219492230605,4.83980964,-6.8296820095,-0.140365101166666,False,1.3298
mp-865185,Mg1 Be2 As2,5,Trigonal,164,79.58497655472777,4.009677000171609,15.916995310945556,4.63641886,-4.001587973999999,-0.311679811999999,False,0.404199999999999
mp-1017628,Mg1 Be2 P2,5,Trigonal,164,71.49090960442201,2.42206802550967,14.298181920884403,5.67672745,-4.453688070000002,-0.46563951085714306,False,0.6341
mp-28447,Mg2 Bi4 O12,18,Tetragonal,136,231.31625031681256,7.727994984787273,12.850902795378476,3.3490821,-6.046134988333331,-1.7018789144444422,False,0.001999999999999
mp-1400392,Mg2 Cr4 S8,14,Cubic,227,263.5798815031735,3.232593102234777,18.82713439308382,4.21175219,-6.5557852235714265,-1.200070477142852,False,0.9995
mp-1041631,Mg4 Cu8 O16,28,Orthorhombic,57,271.4331378813932,5.270854558531761,9.694040638621185,3.6699399,-5.725900386428571,-1.494367904285713,False,0.3094
mp-38951,Mg2 Ga4 O8,14,Orthorhombic,74,141.901169852472,5.330265396073034,10.135797846605143,2.58247152,-6.458567636428568,-2.533066767857139,False,2.6624
mp-667323,Mg6 Ga12 S24,42,Monoclinic,15,881.8968652563112,3.298995783839219,20.997544410864553,2.53401062,-4.644154353333333,-1.181282877619046,False,2.3518
mp-20493,Mg2 In4 S8,14,Cubic,227,315.3876806817142,4.024632099908039,22.5276914772653,3.7635593,-4.4857812839285724,-1.099744745119047,True,1.764399999999999
mp-1006591,Mg4 In8 Se16,28,Triclinic,2,784.2037323163396,4.8260092163129364,28.007276154154987,3.257754299999999,-4.02157639964286,-1.002653055029763,False,0.798099999999999
mp-1222182,Mg1 In2 Te4,7,Tetragonal,82,253.3950353475435,5.008851451897298,36.19929076393479,3.2255144,-3.536231495714283,-0.7187970564285681,True,1.4769
mp-8208,Mg1 Pt3 O6,10,Orthorhombic,65,112.63224450559863,10.401985589608127,11.263224450559864,5.25939535,-6.329759824000002,-1.376596223500001,False,0.2984
mp-27219,Mg4 Sb8 O16,28,Tetragonal,135,427.5114740346541,5.155458264365747,15.268266929809075,4.14985307,-6.40624730678571,-2.166202090357139,True,2.5763
mp-3653,Mg2 Sb4 O12,18,Tetragonal,136,201.3743700112986,6.000164250606553,11.1874650006277,5.14520372,-6.621298827777778,-2.223938991666667,True,1.037499999999999
mp-14307,Mg2 Sc4 S8,14,Cubic,227,303.7541893050832,2.65110575046383,21.69672780750594,2.98419924,-6.471187339285714,-2.064209268571427,True,1.5651000000000002
mp-567224,Mg4 Si8 B48,60,Orthorhombic,62,563.3591844402094,2.478408842903308,9.389319740670157,6.17587408,-6.278089828833333,-0.102502673833332,False,2.0585
mp-29624,Mg2 Al2 Se5,9,Trigonal,164,213.78080195251727,3.863337670279202,23.753422439168585,2.61202343,-4.440237045555555,-1.303387147968749,True,1.936099999999999
mp-568556,Mg4 B48 C2,54,Tetragonal,118,406.5429782996535,2.614794387515776,7.528573672215805,5.67962493,-6.529043086481482,-0.12922797453703702,False,2.816
mp-642660,Mg4 Co2 H10,16,Tetragonal,129,127.11642919972115,2.94137109664556,7.944776824982572,3.98725458,-3.775392379375,-0.35411876140624904,False,0.194699999999999
mp-23804,Mg2 Fe1 H6,9,Cubic,225,64.16513438568785,2.859714273790479,7.129459376187539,2.93462837,-3.963834401111111,-0.39694997083333305,False,1.913999999999999
mp-408,Mg2 Ge1,3,Cubic,225,64.57586863742208,3.117888556106423,21.525289545807357,3.3800771,-7.747424976666667,-0.34389672666666704,False,0.16890000000000002
mp-17441,Mg8 Ge4 S16,28,Orthorhombic,62,576.2127932907068,2.87616732798458,20.579028331810957,2.84274628,-4.751432621071429,-1.260374598928571,False,2.58
mp-1192564,Mg8 Ge4 Se16,28,Orthorhombic,62,672.0344668586747,4.320046404839095,24.00123095923838,3.5413346900000002,-4.219532437857143,-1.095587609910714,False,1.493799999999999
mp-770423,Mg4 Mn6 O16,26,Orthorhombic,31,263.01723725582224,4.311049342432729,10.116047586762393,2.50930698,-7.656075331538462,-2.246023489522547,False,1.399499999999999
mp-697331,Mg8 Ni4 H16,28,Monoclinic,15,265.92164711730936,2.780915125493409,9.497201682761048,3.37825895,-3.5636289725,-0.33195147750000004,False,1.571899999999999
mp-33940,Mg4 Pt2 O8,14,Orthorhombic,74,155.27260238423105,6.581121388051768,11.090900170302218,3.97764719,-6.341118776428571,-2.1805591521428562,False,1.077399999999999
mp-1029627,Mg8 Re4 N12,24,Monoclinic,15,311.4498543359846,5.903985033023504,12.977077263999357,5.03535837,-7.349718709583333,-0.5624041308333331,False,0.253999999999999
mp-1029378,Mg4 Sb2 N6,12,Orthorhombic,36,162.56372011843297,4.339000831823242,13.546976676536081,4.47291607,-5.947336907500002,-0.546541156666669,True,0.00019999999999900002
mp-1367,Mg2 Si1,3,Cubic,225,63.69904837788204,1.999337152211547,21.23301612596068,3.4020303100000002,-3.004018116666666,-0.10859876333333301,False,0.21799999999999903
mp-1193963,Mg8 Si4 S16,28,Orthorhombic,62,559.8940879583741,2.4314356731685223,19.99621742708479,6.22807774,-5.012553085,-1.406882180714285,True,2.969099999999999
mp-1192582,Mg8 Si4 Se16,28,Orthorhombic,62,656.2997215584232,3.9727003462965182,23.439275769943688,4.70185541,-4.4129096975,-1.174351987410714,True,2.1310000000000002
mp-34022,Mg4 Sn2 O8,14,Orthorhombic,74,161.81208557747004,4.747629452044268,11.558006112676432,3.811373719999999,-6.529048445714284,-2.6629976021428563,False,2.7149
mp-1222196,Mg4 V4 Co2 O16,26,Orthorhombic,64,298.58208476880316,3.753081225472855,11.48392633726166,2.0105296,-7.712529408076923,-2.470540413461539,False,2.5147
mp-27150,Mg4 V4 O14,22,Triclinic,2,265.55924353404055,3.282679233035862,12.070874706092752,0.70563279,-7.771913141363637,-2.675142304545454,False,2.7138
mp-1029368,Mg4 V2 N6,12,Orthorhombic,36,144.36430077503098,3.256832489181819,12.03035839791925,3.161653,-7.343805960833332,-1.117192738333332,False,1.8994
mp-1222174,Mg4 Zn2 As4,10,Trigonal,156,199.96170761099577,4.382373970834491,19.996170761099577,4.31511263,-3.228867127999998,-0.45668138699999905,True,0.5345
mp-1222129,Mg2 Zn1 P2,5,Trigonal,156,91.31324082665388,3.199966235679973,18.262648165330777,5.38472778,-3.56750833,-0.497182191857142,False,0.9775
mp-1205144,Mg6 Al36 W4,46,Cubic,227,772.1727636673756,3.983811558813666,16.786364427551643,7.15039348,-4.367937914130436,-0.09715376434782501,False,0.026500000000000003
mp-1990,Mg24 As16,40,Cubic,206,944.6147476461049,3.132694630713741,23.61536869115262,2.42281242,-9.17214968525,-0.78755513925,True,1.6654
mp-1206514,Mg3 As1 N1,5,Cubic,221,74.42114156493827,3.6111663522785493,14.884228312987654,4.712618,-8.16520575,-0.896367267250001,False,2.281799999999999
mp-770722,Mg3 Mn5 B4 O16,28,Triclinic,1,288.53215188167604,3.722643941524659,10.304719710059858,3.27638213,-8.1780028925,-2.585630404332922,False,0.8500000000000001
mp-643573,Mg6 Mn2 H14,22,Hexagonal,194,190.17008726927776,2.356007145504216,8.644094875876261,2.97602335,-3.783996438636363,-0.34585185606191104,True,1.6630999999999991
mp-1245510,Mg6 Mo2 N8,16,Orthorhombic,31,204.77218750007123,3.647223959720584,12.798261718754452,6.07360936,-7.108456584375,-0.9721851925000001,False,2.9642
mp-1559,Mg24 N16,40,Cubic,206,489.827010464277,2.73722024386655,12.245675261606925,3.70405339,-7.095321842,-0.9422394225,True,1.952799999999999
mp-505365,Mg3 Nb6 O11,20,Trigonal,164,240.75479429732084,5.561551400341559,12.037739714866042,5.08592387,-8.758069667000001,-2.7617290999999993,False,0.24370000000000003
mp-2514,Mg24 P16,40,Cubic,206,866.2922139668336,2.068073438608592,21.65730534917084,3.20685389,-3.792177938999999,-0.647706519857142,True,1.798099999999999
mp-643061,Mg6 Re2 H14,22,Hexagonal,194,212.58366059880467,4.158346591624475,9.66289366358203,2.2174624,-4.084510159090908,-0.34762931147727205,False,2.6637
mp-1196139,Mg24 Sb16,40,Cubic,206,1177.5395959499585,3.569834467371242,29.438489898748962,3.15037075,-3.05801384425,-0.428131339249999,True,1.3212000000000002
mp-1080847,Mg3 Sb1 N1,5,Cubic,221,82.0474083873499,4.223462046461523,16.40948167746998,5.70989247,-4.177674120000001,-0.705936314,False,1.623399999999999
mp-1222229,Mg3 Si9 B36 C1,49,Trigonal,160,484.3418649363028,2.492105932090949,9.884527855842913,5.7216831599999995,-6.307357107755102,-0.115397075969386,True,1.042
mp-864942,Mg6 Tc2 H14,22,Hexagonal,194,209.3254311661595,2.823613921624988,9.514792325734522,2.35656013,-3.927473061363636,-0.38036269215909,True,2.6125
mp-3118,Mg6 Te2 O12,20,Trigonal,148,219.83434367579835,4.479452620181878,10.991717183789918,3.554516989999999,-6.3120877365,-2.539839539666666,False,2.9101
mp-1030015,Mg108 W36 N144,288,Trigonal,159,3998.4715381187016,4.676264456985554,13.883581729578825,3.4611653000000002,-7.2327427275,-0.8324113206249991,True,1.9513
mp-2713744,Mg8 Nb4 S18 O72,102,Trigonal,158,1475.5369391049223,2.582962453676178,14.466048422597277,0.14089715,-7.006375296666667,-2.259388582401961,True,2.333799999999999
mp-676305,Mg8 Sb4 O18,30,Triclinic,2,325.3065630706089,4.9486904453139715,10.84355210235363,4.22111645,-6.514853357333334,-2.560751251666667,False,2.4289
mp-1222125,Mg4 Si1 Ge1,6,Trigonal,166,127.84488759050369,2.571054987044204,21.307481265083947,4.10020242,-2.947115743333333,-0.185411419166666,True,0.005399999999999
mp-989522,Mg6 Bi2 P1 N1,10,Cubic,225,204.39389555172036,4.945785980768619,20.439389555172035,4.98100814,-3.604673167,-0.473009168964286,True,0.904799999999999
mp-19239,Mg24 Mn4 O32,60,Cubic,225,583.7604997297776,3.740741021274272,9.72934166216296,3.18715837,-6.740838904499999,-2.838937343028735,False,2.2891
mp-1222065,Mg2 Ag4 P4 S12,22,Monoclinic,15,478.5552979323388,3.430890935917467,21.752513542379038,4.96990007,-4.619281574545455,-0.7122406811471841,False,2.2038
mp-555546,Mg4 As8 Xe16 F80,108,Orthorhombic,19,2131.948683370919,3.3625580962130233,19.740265586767766,-3.39101062,-3.701776901851851,-1.872426558888888,True,2.897199999999999
mp-554686,Mg4 As8 Xe8 F72,92,Monoclinic,14,1563.4997981566098,3.308144549155631,16.994563023441412,-3.71279401,-4.040458979021739,-2.062528275978261,False,2.6774999999999993
mp-7623,Mg4 As16,20,Tetragonal,92,469.7396236555229,4.581264597231103,23.486981182776145,3.60200423,-12.904779862000002,-0.304894355,False,0.8144
mp-1194889,Mg2 Au4 S8 O32,46,Orthorhombic,43,665.0788483828351,4.007234844674127,14.458235834409459,-0.061838950000000004,-6.171503071739131,-1.654153142826087,False,1.7625000000000002
mp-365,Mg4 B16,20,Orthorhombic,62,177.51255307952263,2.527545268520004,8.875627653976132,6.93534503,-6.8837363985,-0.1727923235,False,0.36409999999999904
mp-978275,Mg4 B28,32,Orthorhombic,74,251.90496067954192,2.636296109595186,7.872030021235685,7.48912716,-7.1071141003125,-0.15789122937500003,False,1.541399999999999
mp-30091,Mg2 B18 N2,22,Trigonal,166,173.35858147630654,2.597931562214007,7.879935521650297,5.65348591,-7.659845683181818,-0.440278225568182,False,1.6752999999999991
mp-1443950,Mg1 Co1 F6,8,Trigonal,148,96.64954197285985,3.388591526097934,12.081192746607481,-1.83985961,-5.09064082125,-2.559765698125,False,0.0078000000000000005
mp-554955,Mg1 Cr1 F6,8,Trigonal,148,94.76075401263513,3.334571415843009,11.845094251579392,-2.39923963,-5.96035213625,-3.114523169375,False,1.6140999999999992
mp-19120,Mg2 Cr2 O8,12,Orthorhombic,63,144.76612491605178,3.218590985678326,12.063843743004314,0.18226955,-7.364724258333333,-2.185497340833333,False,2.3991
mp-1205334,Mg2 Cu4 Si2 S8,16,Orthorhombic,31,303.15496762818077,3.371334784326635,18.947185476761298,6.39492819,-4.9283391256249995,-0.9523841687500001,True,1.673099999999999
mp-1188827,Mg2 Cu4 Si2 Se8,16,Orthorhombic,31,360.24569072712836,4.566341155425455,22.515355670445523,3.62271708,-4.417267115,-0.7625362030468741,True,0.7726000000000001
mp-7352,Mg4 Cu4 P4,12,Orthorhombic,62,175.6042302669712,4.494496723238884,14.633685855580934,7.30101959,-4.134183709166669,-0.419133639047621,False,0.018499999999999
mp-1041741,Mg2 Cu2 P4 O14,22,Triclinic,2,244.96753130936762,3.549202623650019,11.134887786789436,3.12560547,-7.164285901363636,-2.510072194935064,False,0.3723
mp-7798,Mg4 Ge4 N8,16,Orthorhombic,33,188.12025622947417,4.412035345023502,11.757516014342135,3.46192443,-9.835632413125,-0.760936786249999,True,2.6358
mp-1202806,Mg4 H4 Au8 F44,60,Monoclinic,14,844.019993750273,4.943949179617624,14.066999895837883,-3.19276263,-4.031796306499999,-1.8567445345833322,False,1.6864
mp-1185888,Mg12 H12 N12,36,Hexagonal,175,433.43944799354495,1.8076379140909302,12.03998466648736,0.98054197,-5.190502707499999,-0.7358646412499991,False,2.2586999999999993
mp-1391800,Mg1 Mn1 F6,8,Trigonal,148,92.49068941421103,3.469232614772261,11.56133617677638,-0.14137639,-5.798121377499999,-3.013671432866378,True,2.8029
mp-1247154,Mg1 Mn1 N2,4,Trigonal,166,36.47917076776599,4.882334584877993,9.119792691941498,6.32210275,-7.612469727500001,-0.7452095282327591,False,0.000399999999999
mp-2232942,Mg1 Mn1 V4 O12,18,Monoclinic,5,262.5167755709333,3.004604633795874,14.584265309496296,0.04308616,-8.353444309999999,-2.436575329607278,False,2.1181
mp-1398330,Mg1 Mo1 F6,8,Trigonal,148,104.69033976042795,3.715309982306983,13.086292470053493,-1.06985922,-6.169142987500001,-3.174238690625,False,2.4449
mp-864954,Mg2 Mo2 N4,8,Hexagonal,194,77.2385908868597,6.374763245285786,9.654823860857462,8.86064092,-8.3269147525,-1.03874584875,False,0.7411000000000011
mp-2713885,Mg2 Nb10 P18 O72,102,Trigonal,158,1518.9294981796627,2.937681681213407,14.891465668428065,0.26189643,-8.348856703431373,-2.878212524544818,True,2.3163
mp-1045786,Mg2 Ni2 P8 O24,36,Monoclinic,15,437.4367263135899,3.028397745728641,12.151020175377496,2.37207482,-7.528684677222222,-2.614905074087302,False,0.086899999999999
mp-384,Mg2 P8,10,Monoclinic,14,196.7707540703042,2.501306360680703,19.677075407030422,5.21312334,-4.956805909000001,-0.298333085714285,False,0.7289000000000001
mp-675651,Mg2 P2 S6,10,Monoclinic,12,218.3408527787415,2.303994842602907,21.83408527787415,2.57191553,-4.944037280000002,-1.051832831428571,False,2.7986
mp-30943,Mg2 P2 Se6,10,Trigonal,148,249.71224882379616,3.88560064823108,24.971224882379616,1.85054648,-4.388379354000001,-0.8816437593348221,False,2.0382
mp-7921,Mg1 Pd1 F6,8,Trigonal,148,94.97931247981346,4.278400244972944,11.872414059976682,-1.51059418,-4.71401053875,-2.427327279375,True,1.8285
mp-1315,Mg1 S1,2,Cubic,225,35.33066670617066,2.649386380469676,17.66533335308533,3.48975604,-4.545918240000001,-1.66150344875,False,2.7574
mp-1185959,Mg2 S4,6,Trigonal,166,122.96464101417257,2.388487798502099,20.49410683569543,3.79466102,-4.456197036666666,-1.153800653333332,False,1.133699999999999
mp-1195096,Mg4 Sb12 Xe4 F92,112,Monoclinic,14,1871.6863321376206,3.399144027724301,16.711485108371612,-3.0376055,-4.380915481875,-2.306906462946429,True,1.6103