material_id,composition,nsites,crystal_system,space_group,volume,density,density_atomic,efermi,energy_per_atom,formation_energy_per_atom,is_gap_direct,band_gap
mp-572767,Cs2 Au2 F8,12,Orthorhombic,71,224.5603568414312,6.002446291311479,18.713363070119268,-1.9947491,-16.6242539275,-1.9246664358333332,False,2.447199999999999
mp-28453,Cs2 Au2 I6,10,Tetragonal,139,431.2946941860062,5.471687382536456,43.12946941860062,1.20137522,-2.696688998000001,-0.945909514931036,True,0.7337
mp-9986,Cs4 Au4 O4,12,Tetragonal,139,324.8637387404581,7.071678835584058,27.071978228371506,1.451468,-4.10462064666667,-1.061347121551727,False,1.3835
mp-997024,Cs2 Au2 O4,8,Orthorhombic,63,198.66888702284396,6.049267644993321,24.833610877855495,0.65287251,-4.654470023750001,-1.135024628663794,False,1.5219
mp-1077383,Cs2 Au2 S2,6,Orthorhombic,63,204.7040615441595,5.871994510706067,34.117343590693245,1.5903816800000001,-28.81519185333333,-0.905721109270833,False,1.8832
mp-574599,Cs2 Au2 Se2,6,Orthorhombic,63,221.68750154831753,6.124671329145844,36.947916924719586,1.33694012,-30.89332703166667,-0.8916692380208341,False,1.7093
mp-567913,Cs2 Au2 Se6,10,Monoclinic,15,330.10821328837363,5.701850689530211,33.010821328837366,1.41487603,-24.306352541000003,-0.580733772437503,False,1.0527
mp-1228848,Cs2 B2 S4,8,Orthorhombic,71,251.71083119941213,2.742330567099997,31.463853899926516,3.10937009,-5.05880040375,-1.092778284705459,False,2.8051
mp-573358,Cs4 B4 Se12,20,Monoclinic,14,593.0100300717643,4.262965177252166,29.650501503588213,1.73894469,-4.4690228445,-0.8540020896706191,False,1.7167
mp-505814,Cs1 Ba2 Nb3 O10,16,Tetragonal,123,260.8671724870714,5.386912758877064,16.304198280441963,1.37831518,-8.413842181875,-3.130751393103448,False,1.4077
mp-557433,Cs4 Ba4 Cr12 F48,68,Monoclinic,15,1121.534871624431,3.874430748823926,16.493159876829868,-1.21082937,-6.509945190882353,-3.2892202838032443,False,2.8965
mp-1192526,Cs4 Ba4 P4 S16,28,Orthorhombic,62,852.8956674301622,3.34458458730129,30.46055955107722,2.00496648,-5.032078437857143,-1.489812108471146,False,2.3742
mp-1192754,Cs4 Ba4 V4 S16,28,Orthorhombic,62,859.0465706443161,3.4750275968234,30.680234665868433,1.59468019,-5.745142871071429,-1.678814749593595,False,1.2810000000000001
mp-1205121,Cs16 Bi16,32,Monoclinic,14,1628.7451587677517,5.5769541143173935,50.89828621149224,2.50059723,-42.316123761875,-0.510760389375001,True,0.24520000000000003
mp-1213697,Cs2 Bi2 Mo4 O16,24,Orthorhombic,49,424.48411685433723,5.1774850261893,17.686838202264052,1.19856578,-7.530035858750001,-2.023952513721266,False,2.8514
mp-29531,Cs4 Bi12 S20,36,Orthorhombic,62,1065.0431895763147,5.738662960947725,29.58453304378652,3.11886228,-27.412530933055553,-0.658056527951389,False,1.427899999999999
mp-567928,Cs4 Bi12 Se20,36,Orthorhombic,62,1196.6936053651734,6.408777869298507,33.24148903792148,3.08198573,-30.917538927222225,-0.6760861061458361,False,1.4617
mp-27422,Cs1 Bi1 F6,8,Trigonal,148,147.8631864390678,5.119599921576363,18.482898304883474,-3.42421705,-15.15245842875,-2.356596623125002,True,2.8234
mp-29506,Cs2 Bi2 O4,8,Monoclinic,15,195.49426587703806,6.351593670502787,24.436783234629758,1.89656766,-5.347800615000001,-1.674317142413794,False,2.318699999999999
mp-541378,Cs4 Bi4 S8,16,Monoclinic,14,555.053003685522,4.858672445781889,34.69081273034512,1.85653401,-25.78647656125,-0.866295333906254,False,1.5773000000000001
mp-1198032,Cs4 Br8 F28,40,Monoclinic,14,736.7027524184895,3.838157275210297,18.417568810462235,0.81812882,-3.453076710749999,-1.695192984215516,True,2.5583
mp-27641,Cs4 Br12,16,Orthorhombic,62,646.5269313550925,3.8281210311225973,40.40793320969328,-0.9552924500000001,-2.83357658625,-1.378872292413793,False,1.9977
mp-581330,Cs8 Ca16 Nb24 O80,128,Orthorhombic,62,1902.4394671889763,4.551197306966774,14.862808337413878,1.52863021,-8.449230717812501,-3.155311811540949,True,2.0693
mp-1213700,Cs2 Ca2 Ta12 Cl36,52,Trigonal,163,1353.8568280541022,4.653005405808172,26.035708231809657,2.76695641,-6.029699253076923,-1.899356441294429,False,0.16159999999999902
mp-1079080,Cs1 Cd4 As3,8,Tetragonal,123,225.8687330129847,5.935203321062754,28.233591626623088,2.32277016,-2.572840911250001,-0.228042670269397,True,0.21980000000000002
mp-1191636,Cs4 Cd4 B4 O12,24,Cubic,198,446.2558606702689,4.526663473968695,18.593994194594536,0.8275373300000001,-6.099575474166667,-2.201031716470306,False,1.646199999999999
mp-541899,Cs2 Cd2 Br6,10,Hexagonal,194,351.63652167638946,4.580916049065491,35.16365216763894,-0.58405304,-2.941244357000002,-1.585478883931036,True,2.901
mp-619015,Cs6 Cd6 Cl18,30,Hexagonal,194,896.796766964518,3.907044593531172,29.893225565483935,-0.69453597,-14.438023186,-1.703871709499998,True,2.4918
mp-1195350,Cs8 Cd8 In8 Te24,48,Monoclinic,15,2051.9833866684003,4.809675124342979,42.749653888925,1.94491572,-3.190745762083333,-0.8478992314703061,True,1.2066
mp-1213689,Cs2 Ce2 P8 O24,36,Monoclinic,4,603.0775838253196,3.24305504099537,16.75215510625888,4.00731174,-7.7864434283333335,-2.904090450457032,False,0.19819999999999902
mp-574426,Cs2 Ce2 Cd2 Se6,12,Orthorhombic,63,416.1543563656901,4.966302153057457,34.67952969714084,3.53801339,-4.616205221666667,-1.567426544447736,False,0.018399999999999
mp-510569,Cs2 Ce2 Cu2 S6,12,Orthorhombic,63,326.0378586653987,4.408193336069274,27.16982155544989,3.26410931,-5.5503841508333345,-1.657182015359194,False,0.9341
mp-1202824,Cs8 Ce8 F40,56,Monoclinic,14,1036.538157317987,4.716474631780855,18.50960995210691,-1.3544735700000001,-6.174613705535714,-3.82972951762931,False,2.2534
mp-1194418,Cs4 Ce4 Si4 S16,28,Orthorhombic,62,791.3769071257674,3.603747297233704,28.263460968777405,4.61539079,-15.509603121785714,-1.6720541669642852,True,0.022500000000000003
mp-573969,Cs4 Ce4 Si4 Se16,28,Orthorhombic,19,917.37714897175,4.4669284243586,32.76346960613393,3.5039947,-5.260518924285714,-1.509963012718595,False,0.2913
mp-1202342,Cs10 Co10 F40,60,Tetragonal,120,1045.6225840141165,4.253407848367614,17.42704306690194,-1.0157142,-5.059021924666667,-2.442887959609196,False,0.3388
mp-1228915,Cs2 Co2 Ni2 F12,18,Orthorhombic,74,283.15351176168,4.27544614824969,15.730750653426668,-0.99621847,-5.23443218,-2.4228049332950192,False,1.4981
mp-1189724,Cs4 Co4 O8,16,Orthorhombic,64,305.89184969734356,4.860421426895976,19.118240606083972,1.73706574,-5.9173436200000005,-1.433014544913794,False,0.4868
mp-1213684,Cs2 Cr2 S4 O16,24,Trigonal,150,403.92119642854743,3.099949476377655,16.830049851189475,-0.21929197,-6.967224373333334,-2.098771688721264,False,2.7386
mp-573422,Cs4 Cr12 O32,48,Orthorhombic,62,735.0314855733042,3.7672421094937683,15.313155949443837,-0.38658101,-7.73002192458332,-1.942454589554585,False,1.6554
mp-540569,Cs1 Cr5 S8,14,Monoclinic,12,271.49034120284614,3.972015904635083,19.392167228774724,4.83028695,-6.963087757857143,-1.085938367832511,False,0.3078
mp-505149,Cs1 Cr5 Se8,14,Monoclinic,12,314.02014561932197,5.417906504319134,22.43001040138014,3.83857575,-6.4277818971429035,-0.9177457013147001,False,0.010499999999999001
mp-1195248,Cs4 Cr4 As8 O28,44,Monoclinic,14,671.1777899524201,4.421064881285677,15.25404068073682,3.01152044,-6.921926285227272,-1.9640174542868332,True,2.5017
mp-29616,Cs2 Cr2 Cl6,10,Monoclinic,12,287.08960140196143,3.369328060839493,28.708960140196144,2.58691115,-13.44975245,-1.721930033499998,False,0.15329999999999902
mp-1225975,Cs2 Cr2 Co2 F12,18,Orthorhombic,74,295.4783705689777,4.02183527801048,16.415465031609873,-0.11087647,-6.112449306111111,-2.870498638295019,False,2.2148
mp-27149,Cs3 Cr3 F12,18,Hexagonal,189,332.4315794640337,3.909616053654096,18.468421081335205,-1.2964277100000001,-6.130820956111111,-3.094748532720306,True,2.8606
mp-1225991,Cs2 Cr2 O6 F2,12,Monoclinic,9,261.8734221374433,3.19457181972808,21.822785178120274,-1.87017367,-6.6614700225,-2.108343284109196,True,2.8472
mp-562965,Cs4 Cr4 P8 O28,44,Monoclinic,14,640.659944396972,3.720388268331982,14.560453281749364,1.25982388,-7.761660712954546,-2.668233519676444,False,2.7059
mp-1103473,Cs1 Cr1 P2 S7,11,Monoclinic,5,297.7554663709054,2.6283945004216163,27.068678760991403,2.23588424,-5.468648782727272,-0.8904225042218971,False,1.0727
mp-1196438,Cs8 Cu16 As8 S24,56,Orthorhombic,61,1369.2907193393473,4.182496618018807,24.45161998820263,3.28827448,-4.434527553035714,-0.692871532272167,False,1.3532
mp-23017,Cs2 Cu4 Br6,12,Orthorhombic,63,354.59257339612583,4.680228121429063,29.54938111634382,1.80495393,-3.399218940833333,-1.063013854942529,True,1.4959
mp-579536,Cs2 Cu4 I2 Cl4,12,Monoclinic,11,347.75085980052285,4.372141249341455,28.979238316710237,2.359634299999999,-3.527737752499999,-1.139822898275862,True,2.0373
mp-553303,Cs1 Cu3 O2,6,Trigonal,164,124.77345540897285,4.731709939199385,20.795575901495475,2.18316305,-4.819688318333333,-0.9694350532758621,False,1.4572
mp-7786,Cs1 Cu3 S2,6,Trigonal,164,162.5991758120839,3.959103167334656,27.099862635347318,1.9749943600000002,-12.898634413333333,-0.612161219270833,False,1.6845999999999992
mp-27336,Cs4 Cu4 Br12,20,Orthorhombic,20,627.3825242091172,4.6177024278199355,31.369126210455857,0.57977478,-3.233106413499999,-1.249501644431033,False,0.37359999999999904
mp-23032,Cs6 Cu6 Cl18,30,Hexagonal,178,835.3747005276382,3.611518889694559,27.845823350921272,0.53333607,-12.214737264,-1.332224125499999,True,0.5494
mp-541037,Cs2 Cu2 O2,6,Orthorhombic,63,155.8709544382072,4.526602670573323,25.978492406367867,2.350117479999999,-4.503686341666667,-1.185304593218391,False,1.1227
mp-553310,Cs2 Cu2 O4,8,Orthorhombic,63,175.51025953569226,4.322830688737202,21.938782441961532,0.8818475,-5.073960275000001,-1.348183712413794,False,0.9672000000000001
mp-1198842,Cs8 Cu8 P8 S24,48,Monoclinic,14,1321.5748637653985,3.252991700470434,27.532809661779137,2.507216859999999,-4.697080543125,-0.8907911317580041,False,2.1498
mp-1201069,Cs8 Cu8 P8 Se24,48,Monoclinic,14,1474.1153988766093,4.184187735069202,30.710737476596027,2.06141164,-4.233157412083334,-0.7480920456382131,True,1.3477000000000001
mp-18003,Cs4 Cu4 S16,24,Orthorhombic,19,643.171905702622,3.353355744998353,26.798829404275917,2.64510982,-11.879577679583333,-0.530370124791666,False,1.7757
mp-17095,Cs4 Cu4 Se16,24,Orthorhombic,19,724.6176236699068,4.695883409828323,30.192400986246117,1.978083499999999,-16.043269015833335,-0.5096873618750001,False,1.1049
mp-1190421,Cs2 Dy4 Ag6 Te10,22,Orthorhombic,63,706.7549216105842,6.670351559037642,32.12522370957201,3.8255095,-4.191672467727272,-1.065302365120165,False,1.0728
mp-18672,Cs2 Dy4 Cu6 Se10,22,Orthorhombic,63,530.2477796752135,6.534728208847734,24.102171803418795,3.7357763,-4.951068084545454,-1.321803900427931,False,1.1878
mp-11122,Cs2 Dy2 Cd2 Se6,12,Orthorhombic,63,395.17615329839686,5.418057924512425,32.93134610819974,1.38115575,-4.409087741666666,-1.580071454725513,True,2.0718
mp-12487,Cs2 Dy2 Cd2 Te6,12,Orthorhombic,63,469.9829181504342,5.586796687178349,39.165243179202854,2.60184906,-3.9361726225,-1.2834591277203051,True,1.5476
mp-754138,Cs2 Dy2 O4,8,Hexagonal,194,147.44496147583573,7.374515146656906,18.430620184479466,2.29221196,-6.816404833749999,-2.960836056580458,False,2.835
mp-984555,Cs2 Dy2 S4,8,Hexagonal,194,231.8375209334761,5.150354104061922,28.979690116684512,2.1796225,-20.410638925,-2.120575327656247,False,2.2244
mp-1193064,Cs4 Dy4 Si4 S16,28,Orthorhombic,19,779.7694023566658,3.848061243421652,27.848907227023776,1.9228172,-5.650632832857143,-1.721331490188833,False,2.931899999999999
mp-1102146,Cs2 Dy2 Zn2 Se6,12,Orthorhombic,63,372.7913921054386,5.32466686886006,31.065949342119882,1.43100173,-4.5238811675,-1.644909310558847,True,2.154099999999999
mp-510462,Cs2 Dy2 Zn2 Te6,12,Orthorhombic,63,442.0824489520824,5.5862921081589345,36.840204079340204,2.85763431,-4.007362930833334,-1.304693866053638,True,1.3714
mp-569903,Cs2 Er2 Nb12 Br36,52,Trigonal,163,1589.7736557244118,4.796141476633741,30.572570302392535,2.10981441,-5.187908492115384,-1.5129637132559681,True,0.650199999999999
mp-571010,Cs2 Er2 Ta12 Br36,52,Trigonal,163,1583.288494460961,5.9238323301638385,30.447855662710786,2.40010592,-5.575210017307692,-1.492813891679045,True,1.0084
mp-1196026,Cs1 Er10 C4 I18,33,Triclinic,2,1175.7844622682744,5.84376630421121,35.629832189947706,3.60117355,-4.793922345454545,-1.432344929989549,False,0.29050000000000004
mp-1190252,Cs2 Er4 Ag6 Te10,22,Orthorhombic,63,689.9447478771672,6.878686778175768,31.361124903507598,3.57379714,-4.164419742272726,-1.0472599520898611,True,1.1873
mp-17410,Cs4 Er12 Se20,36,Orthorhombic,62,1112.4042008186127,6.147031190644895,30.90011668940591,1.8511954400000001,-24.177179554166667,-2.128006259201388,False,1.6727999999999992
mp-23118,Cs1 Er6 C1 I12,20,Trigonal,148,769.1042961239642,5.7675370406109785,38.455214806198214,3.79371137,-4.2688575075,-1.477302142357758,False,0.21999999999999903
mp-12488,Cs2 Er2 Cd2 Te6,12,Orthorhombic,63,455.6242784758644,5.797548870366191,37.9686898729887,2.68242867,-3.917161095000002,-1.272890386609196,True,1.5492
mp-1213650,Cs2 Er2 Mn2 Se6,12,Orthorhombic,63,376.6359207317878,5.219948543070007,31.38632672764898,2.64413352,-5.749293189166667,-1.561718838269576,False,0.514
mp-561751,Cs1 Er1 S2,4,Trigonal,166,113.95259114890585,5.308568791868081,28.488147787226463,2.2954972,-20.8842361575,-2.108264574739578,False,2.1441
mp-16972,Cs4 Er4 Si4 S16,28,Orthorhombic,19,771.2682373261198,3.931460276646166,27.545294190218563,1.9517517500000001,-5.636722388214286,-1.714657719593595,False,2.957
mp-568606,Cs2 Er2 Ta12 Cl36,52,Trigonal,163,1339.671945823768,5.017557618220667,25.762922035072464,3.04782294,-6.138556597115384,-1.9096707495636602,True,1.3436
mp-7155,Cs2 Er2 Zn2 Se6,12,Orthorhombic,63,370.9770828409474,5.393311549203616,30.914756903412282,1.52134458,-4.5167038858333335,-1.64617481528107,True,2.1566
mp-569107,Cs2 Er2 Zn2 Te6,12,Orthorhombic,63,441.7847952366879,5.625831249445617,36.81539960305732,2.92524164,-3.991148861666667,-1.296922583275861,True,1.386499999999999
mp-1190817,Cs4 Eu4 As4 S12,24,Monoclinic,14,693.8881221511967,4.3648687956048144,28.912005089633197,3.73501821,-6.103570003750003,-1.390021550359199,False,0.5358
mp-638685,Cs4 Eu4 Br12,20,Orthorhombic,62,808.6999868930995,4.308584189992555,40.434999344654976,2.20307245,-5.513263593,-2.291877774931035,True,0.9373999999999991
mp-1213620,Cs2 Eu2 Ta12 Cl36,52,Trigonal,163,1367.208570301883,4.879347184141967,26.292472505805442,2.77130182,-6.352084673653845,-1.903183706679044,False,0.109199999999999
mp-1104989,Cs1 Fe1 Mo2 O8,12,Trigonal,164,243.23784405265494,3.472291774926311,20.269820337721246,-1.25120543,-7.912516603333334,-2.024767683304598,True,2.3737
mp-560628,Cs4 Fe4 S8 O32,48,Trigonal,147,776.8876661812026,3.256372456551146,16.185159712108387,-0.15610943,-6.768817577708333,-1.99895041476293,False,2.3514
mp-1213156,Cs1 Fe1 Se2 O8,12,Trigonal,150,217.97867000616327,3.6159540680325293,18.164889167180274,-0.73160797,-6.093102065,-1.430309583695223,False,2.2281
mp-19476,Cs2 Fe4 P10 O32,48,Monoclinic,7,710.1875557742603,3.065128538568775,14.795574078630423,0.903867499999999,-7.686850765833333,-2.51631894511956,True,0.510599999999999
mp-1213351,Cs4 Fe4 Br16,24,Orthorhombic,62,934.6718484152635,3.61265766144581,38.94466035063598,-0.16610502,-4.020520111250001,-1.366222624525862,False,1.0776
mp-27570,Cs4 Fe4 Cl16,24,Orthorhombic,62,796.2981469819492,2.757318310542176,33.17908945758122,-1.24629741,-4.475456927500001,-1.680095264109195,False,1.3293
mp-1226043,Cs2 Fe2 Co2 F12,18,Orthorhombic,74,294.3019356309492,4.081345335684319,16.350107535052732,-0.10787717000000001,-5.790425814444443,-2.679922508850574,False,1.828
mp-568620,Cs4 Fe4 I16,24,Monoclinic,14,1106.8269490959074,4.17896156506694,46.11778954566281,0.8675514400000001,-3.518375780416666,-0.9393675736925281,False,0.6642
mp-1225937,Cs2 Fe2 Ni2 F12,18,Orthorhombic,74,276.51428424861473,4.341010655565451,15.361904680478595,-0.682387699999999,-5.637271124444424,-2.677132267739443,True,2.6205
mp-1080749,Cs2 Fe2 O4,8,Cubic,227,159.0833671836937,4.60843598161213,19.885420897961712,1.85834879,-6.5497713625,-1.731291164913793,True,1.976
mp-20113,Cs4 Fe4 P8 O28,44,Monoclinic,14,649.6157309897892,3.708451968532037,14.763993886131573,1.08784229,-7.510900882272727,-2.525021530812807,False,2.4057
mp-573145,Cs4 Ga12 S20,36,Monoclinic,14,967.0015173273429,3.450889794771527,26.86115325909286,1.84254453,-12.0997087625,-1.031733622395833,True,2.9231
mp-1225982,Cs1 Ga5 Hg4 Se12,22,Triclinic,1,631.8490484634796,5.86426082720137,28.720411293794527,1.25232273,-3.491923927272728,-0.7992837652400101,True,0.8074999999999991
mp-1213239,Cs4 Ga4 Ag4 F24,36,Orthorhombic,62,619.9809065206882,4.547735953895159,17.221691847796894,-1.08528591,-4.5380919452777775,-2.508966887369093,False,0.37070000000000003
mp-1213401,Cs16 Ga16 O32,64,Orthorhombic,61,1144.3867947477897,5.447217247274361,17.881043667934215,1.08328946,-5.555982067656249,-2.097983166945042,True,2.9834
mp-562726,Cs4 Ga4 S12,20,Monoclinic,14,596.6264354825277,3.3267584966791,29.831321774126383,1.44218654,-13.117701489500002,-0.986456250187501,False,2.647199999999999
mp-510283,Cs4 Ga4 Se12,20,Monoclinic,14,668.8176749754033,4.36484250813304,33.44088374877016,1.0530445,-16.834732557000002,-0.9375506284375,False,1.8736000000000002
mp-17688,Cs8 Ga8 Te16,32,Monoclinic,15,1290.0335556958362,4.714556621100473,40.31354861549488,2.01413371,-22.744625145625,-0.8982057531250011,True,1.2835
mp-541789,Cs4 Gd4 C8 O24,40,Triclinic,2,593.4357377365792,4.590951744511555,14.83589344341448,0.68514984,-8.849176702,-2.536257019465517,False,2.7456
mp-1190455,Cs2 Gd4 Ag6 Te10,22,Orthorhombic,63,705.3976281959063,6.633751356369024,32.06352855435938,3.62304554,-28.601236256363634,-1.050671112272725,False,0.622599999999999
mp-1213349,Cs4 Gd8 Cl28,40,Orthorhombic,62,1226.8132856389668,3.765958147691187,30.67033214097417,-0.73173729,-18.005549360750003,-2.508595772500001,True,2.621299999999999
mp-1190996,Cs2 Gd4 Cu6 Se10,22,Orthorhombic,63,539.5699532522585,6.357199437160353,24.52590696601175,3.48547441,-6.685134471363637,-1.336279976033993,True,0.893699999999999
mp-1104011,Cs2 Gd2 Cd2 Te6,12,Orthorhombic,63,471.8113551362256,5.528191133087244,39.317612928018804,2.63856495,-5.533886486666667,-1.304881873275861,False,0.8502999999999991
mp-755651,Cs2 Gd2 O4,8,Hexagonal,194,152.98514675659035,6.993485734956848,19.123143344573794,2.43068846,-9.13122956125,-2.911224106163794,False,2.4891
mp-9084,Cs1 Gd1 S2,4,Trigonal,166,119.50243832030651,4.922952551236916,29.875609580076627,2.22546921,-23.225557145,-2.081693028906247,False,1.8329
mp-630711,Cs4 Gd4 Si4 S16,28,Orthorhombic,19,784.0720393424618,3.7824701644803813,28.00257283365935,1.89642961,-7.010521252857143,-1.7301132370935952,False,1.749
mp-1104966,Cs2 Gd2 Te8,12,Tetragonal,125,458.77135568145127,5.795277261305765,38.23094630678761,4.55615511,-29.479204870833332,-1.116812280833334,False,0.083899999999999
mp-1104469,Cs2 Gd2 Zn2 Te6,12,Orthorhombic,63,448.1598217300752,5.471632923431102,37.346651810839596,2.70870271,-5.599649389166664,-1.320689205775859,False,0.8742999999999991
mp-1273,Cs32 Ge32,64,Cubic,218,2586.3164799242613,4.223040828808655,40.41119499881658,2.12834708,-2.970936935,-0.205434222327586,False,1.331099999999999
mp-553970,Cs4 Ge4 Bi4 S16,28,Monoclinic,14,854.2054260848482,4.220610566752284,30.507336645887438,1.8538466900000001,-4.643251815357142,-0.9326121003078811,False,2.0049
mp-1068340,Cs1 Ge1 Br3,5,Trigonal,160,182.01469342992672,4.062130257958361,36.40293868598535,1.686807009999999,-3.535090980000001,-1.446721973931036,True,0.7856000000000001
mp-22988,Cs1 Ge1 Cl3,5,Trigonal,160,162.92527551742106,3.17893909205653,32.58505510348421,1.25409942,-3.9255326100000003,-1.7102058449310351,False,2.153499999999999
mp-28377,Cs1 Ge1 I3,5,Trigonal,160,225.06811678964056,4.325382720624483,45.01362335792811,2.03893625,-3.090217248000002,-1.069608593931036,True,0.9905
mp-1203289,Cs16 Ge16 Sb16 O80,128,Tetragonal,98,2208.816746965701,4.899214091751323,17.25638083566954,1.87287644,-6.386483242265625,-2.086506780972522,False,1.6632999999999991
mp-1057286,Cs1 H1,2,Cubic,225,65.00013874224075,3.4210452945750163,32.500069371120375,0.14185536,-14.529380255,-0.24759755437499803,True,2.3475