material_id,composition,nsites,crystal_system,space_group,volume,density,density_atomic,efermi,energy_per_atom,formation_energy_per_atom,is_gap_direct,band_gap
mp-5560,Cd6 B4 O12,22,Orthorhombic,58,261.2127321759273,5.783014579006111,11.873306007996694,1.4427331300000001,-6.261267854545454,-2.086124205303029,True,1.4576
mp-29297,Cd6 Cl4 O4,14,Monoclinic,14,261.74068903133235,5.584657198635915,18.695763502238027,0.54909481,-3.773199259285716,-1.4199080907142871,False,1.1749
mp-1227011,Cd3 Cu2 P10,15,Trigonal,160,289.1174018481895,4.445810637090848,19.274493456545965,5.70114981,-11.640240376000001,-0.17161916331746102,False,1.2626
mp-680761,Cd36 P24 O96,156,Monoclinic,14,2058.0207278891817,5.104297771945142,13.192440563392191,0.89440782,-6.342923346474359,-2.2433336802655672,False,2.5482
mp-27899,Cd12 As4 Cl12,28,Orthorhombic,62,769.573091859463,4.475271282071494,27.48475328069511,0.03443953,-2.861407067857143,-0.990581138928571,False,1.4485000000000001
mp-676464,Cd3 As1 I3,7,Monoclinic,6,267.6561488639194,4.918954079144932,38.236592694845626,1.06158607,-2.318818432857142,-0.58707686892857,True,0.8399000000000001
mp-1196945,Cd6 B8 Pb6 O24,44,Hexagonal,176,634.8703622252331,6.246313166037541,14.428871868755296,2.01346044,-6.683908377045455,-2.133405153257575,False,2.654899999999999
mp-1195436,Cd12 B4 P4 O28,48,Orthorhombic,33,626.4913412986737,5.205800292411143,13.051902943722368,0.93687451,-6.312359645,-2.178141069900793,False,2.0403000000000002
mp-2441,Cd24 P16,40,Tetragonal,137,956.9129380814928,5.541610554931454,23.92282345203732,2.35335285,-15.78700092075,-0.123177781940475,False,0.0018000000000000002
mp-29415,Cd6 P2 Cl6,14,Trigonal,164,367.4836528158333,4.288816557871359,26.24883234398809,0.1652229,-13.42216068142857,-0.8829669564965981,False,1.8279
mp-1226891,Cd3 P1 I3,7,Monoclinic,6,257.0085588153337,4.838792953445389,36.71550840219053,1.11257574,-2.418620295714285,-0.580400018520406,True,1.2987
mp-13820,Cd6 Si2 O10,18,Tetragonal,129,234.4004272730585,6.309406457276579,13.022245959614361,1.55319435,-5.699906795555555,-2.028223059444443,True,0.9679000000000001
mp-14243,Cd6 Te2 O12,20,Monoclinic,14,252.33278386347047,7.38135658901718,12.616639193173523,2.58606728,-5.0754776295,-1.504367380166665,True,0.5061
mp-1203526,Cd32 As16 Br24,72,Cubic,205,2075.2664350998953,5.371929243166843,28.82314493194299,0.73275444,-2.677127601944445,-0.6670025541666671,True,0.9704
mp-1214272,Cd32 As16 Cl24,72,Cubic,205,1968.1554844263753,4.764197541853314,27.335492839255213,0.84229236,-2.872692772222221,-0.792035636111109,True,0.8937
mp-1226936,Cd4 Mo1 W3 O16,24,Monoclinic,5,316.40840333906385,7.101158149677651,13.183683472460993,1.13358112,-7.476234818750001,-1.94592408375,False,2.7918000000000003
mp-28855,Cd8 O2 F12,22,Tetragonal,137,307.09123955443454,6.268525292357282,13.958692707019752,-0.97171713,-4.126121581363643,-2.283292852727279,False,1.8997000000000002
mp-28914,Cd32 P16 Br24,72,Cubic,205,1951.3556330057995,5.114675485593733,27.102161569524995,0.94849766,-2.837049788333333,-0.6612911865873,True,1.3986
mp-29746,Cd32 P16 Cl24,72,Cubic,205,1836.0709030619535,4.470986320263327,25.500984764749354,1.12261535,-13.721027008333333,-0.734202555383597,True,1.3826
mp-8921,Cd4 P6 S1 N12,23,Cubic,217,313.4283723801175,4.427166322783166,13.627320538265977,3.3579202,-6.709734581739131,-0.599709606972049,False,2.9902
mp-29044,Cd32 Sb16 I24,72,Cubic,205,2566.8585387344656,5.557658484517503,35.650813037978686,1.8599519,-2.345136459166667,-0.49290522749999904,True,1.130599999999999
mp-556462,Cd10 Mo4 P16 O56,86,Monoclinic,15,1076.2379148741477,4.47354107751095,12.514394359001717,2.10047096,-7.239615730697679,-2.394079742026582,False,2.5954
mp-23476,Cd28 P16 Cl24,68,Cubic,205,1729.4542476038635,4.31488515692178,25.433150700056814,1.25517996,-13.344636293235295,-0.7765273248179261,True,1.8003999999999991
mp-1197203,Cd4 Ag8 Ge4 S16,32,Orthorhombic,33,730.0727936502728,4.813239903877238,22.814774801571026,2.0469062,-4.063761334687499,-0.585967375729164,True,0.8323
mp-1226771,Cd1 Ag2 Sn3 S8,14,Trigonal,166,326.0345050436003,4.791611968330747,23.288178931685735,4.34099556,-4.332420378571428,-0.633743403452379,False,0.643199999999999
mp-471,Cd2 As4,6,Tetragonal,98,152.66478634811008,5.705092246838502,25.444131058018346,2.296602699999999,-3.4946494083333333,-0.06123098999999901,False,0.133199999999999
mp-557926,Cd4 As8 Xe16 F80,108,Orthorhombic,19,2137.4761570803635,3.627649880585538,19.791445898892253,-3.23943857,-3.540325491111111,-1.735806993518518,False,2.415699999999999
mp-997036,Cd2 Au2 O4,8,Triclinic,2,116.260355946894,9.751712740282583,14.53254449336175,1.76975033,-4.4215644075,-0.8891108574999991,False,0.8955000000000001
mp-559282,Cd4 B8 Xe4 F40,56,Monoclinic,14,855.3954614171352,3.535487991943889,15.274918953877414,-0.57728493,-4.911762945714286,-2.5193706848809523,False,2.8874
mp-1226996,Cd1 Bi12 Cl14 O12,39,Orthorhombic,65,801.0254164139019,6.858597731087997,20.5391132413821,3.79274153,-5.091335415384615,-1.6837571289743591,True,1.5446
mp-1196929,Cd4 Bi4 B4 F40,52,Monoclinic,14,759.5845717177627,4.566237928838053,14.607395609956976,-3.02273254,-4.914845770769231,-2.55577192301282,False,2.0295
mp-550553,Cd2 Bi2 Cl2 O4,10,Monoclinic,11,202.587553572604,6.374422445951032,20.2587553572604,1.6449361900000001,-4.916808127,-1.597906265,False,2.8427
mp-755478,Cd2 Bi2 O6,10,Trigonal,146,145.26917584693376,8.444817808315447,14.526917584693376,3.24372955,-5.373882152000002,-1.4350966490000021,False,0.766999999999999
mp-568722,Cd2 Br4,6,Trigonal,166,184.9834976481843,4.887249834906797,30.830582941364053,-1.01705545,-2.6377710600000013,-1.226469973333333,False,2.8551
mp-10969,Cd1 C1 N2,4,Trigonal,166,53.24385900623181,4.754058841630004,13.310964751557952,1.5626783400000002,-6.7871620225000004,-0.07085422937500001,False,2.3076
mp-4385,Cd2 C2 O6,10,Trigonal,167,115.52902720431366,4.956502910786648,11.552902720431366,0.99032799,-6.761938697,-1.7554269574999992,False,2.6226000000000003
mp-1213911,Cd2 Co2 P8 O24,36,Monoclinic,15,472.27253436386394,3.426275224709476,13.118681510107331,0.89098124,-7.367098074166667,-2.415384014642857,True,2.5498000000000003
mp-13982,Cd2 Cu4 Ge2 S8,16,Orthorhombic,31,316.66649334072304,4.618779706263253,19.79165583379519,4.16288452,-4.44150525125,-0.649644044374999,True,0.388499999999999
mp-6449,Cd2 Cu4 Si2 S8,16,Orthorhombic,31,312.7067770102915,4.2040783700915885,19.544173563143218,4.37725876,-4.647483654375,-0.7553361756249981,True,0.9802999999999991
mp-1189879,Cd2 Cu4 Si2 Se8,16,Orthorhombic,31,368.1987508175362,5.262406864046843,23.012421926096014,3.33230674,-4.180721849375,-0.6097984155468741,True,0.339999999999999
mp-1087540,Cd1 Cu2 Si1 Te4,8,Tetragonal,121,229.1038893772113,5.638840532682968,28.63798617215141,4.5212870800000005,-3.77639696375,-0.381776322083332,True,0.29999999999999905
mp-9075,Cd2 Cu2 F8,12,Tetragonal,140,146.69501089631285,5.703995423592497,12.224584241359404,0.49245641,-9.392662903333333,-2.150013655,False,0.7327
mp-241,Cd1 F2,3,Cubic,225,39.38870067731385,6.340854969929461,13.12956689243795,-1.66524454,-11.243246936666667,-2.457565739999999,False,2.8977
mp-555027,Cd4 Ge4 Bi8 O24,40,Orthorhombic,60,625.5979680523068,7.42157413066723,15.639949201307669,3.02491816,-6.085758374,-1.7806711045,True,1.9126999999999992
mp-4953,Cd2 Ge2 As4,8,Tetragonal,122,202.40505823068398,5.4949704037925065,25.300632278835497,2.68030662,-3.807197972499999,-0.07637719499999901,True,0.0085
mp-1245535,Cd4 Ge4 N8,16,Orthorhombic,33,211.38580915750555,6.694900879331364,13.211613072344097,3.46713447,-13.178112868125,-0.119496214999999,True,0.9590999999999991
mp-3668,Cd2 Ge2 P4,8,Tetragonal,122,179.81329023906633,4.561961999018336,22.47666127988329,3.01166382,-13.14611110625,-0.15083163273809402,True,0.6455000000000001
mp-721583,Cd4 H8 Se4 O20,36,Monoclinic,14,447.22980613724053,4.060235759683505,12.423050170478904,-0.46643083,-5.303503476944445,-1.30505241359375,True,2.5187
mp-644222,Cd2 H2 Cl2 O2,8,Hexagonal,186,125.87677625018512,4.3498937482884354,15.73459703127314,-0.09261287,-4.19659908875,-1.408678980312499,True,2.4655
mp-1226809,Cd2 H2 O2 F2,8,Orthorhombic,31,96.36667662612165,5.114875989286433,12.045834578265206,-0.79394882,-4.5952614725,-1.7910139703124992,False,1.8626
mp-560904,Cd2 Hg4 S2 O12,20,Triclinic,2,313.64653541813226,6.794201478790207,15.682326770906613,0.54998252,-4.9212407655,-1.380692779250001,False,1.3352
mp-556369,Cd2 Hg4 Se2 O12,20,Triclinic,2,330.44289349560876,6.920166112884197,16.52214467478044,0.27632463,-4.5467798705,-1.070476693234376,False,0.9505999999999991
mp-570838,Cd2 Hg8 As4 I8,22,Monoclinic,4,817.1130597903378,6.390187402638422,37.14150271774263,0.811553899999999,-2.009375123636363,-0.40619386318182005,True,0.4617
mp-567910,Cd4 Hg24 As16 Br24,68,Cubic,205,2049.636478895984,6.789362577113343,30.141712924940943,0.47502608,-2.397100383529412,-0.554734986176473,True,1.3456000000000001
mp-1227680,Cd4 Hg24 Sb16 I24,68,Monoclinic,15,2661.3344601188664,6.400271798990665,39.13727147233627,1.53148267,-2.083994053970588,-0.408810344264708,False,0.8608999999999991
mp-569454,Cd4 Hg4 As4 Br4,16,Orthorhombic,51,542.9269974966863,5.723379749222309,33.932937343542896,-0.01686502,-2.384810735,-0.490622911250001,False,1.0028
mp-2695851,Cd1 Hg1 O2,4,Trigonal,166,69.72553757563249,8.216295862154777,17.43138439390812,0.65702552,-3.819178855,-1.027777795625001,False,0.3315
mp-570437,Cd3 I6,9,Trigonal,156,341.64690200717655,5.339921249967611,37.96076688968628,1.08985083,-2.16309536511111,-0.827083558444443,False,2.3382
mp-19803,Cd2 In4 O8,14,Cubic,227,196.074285845459,6.877525200967964,14.0053061318185,3.14494656,-5.594896690714283,-1.842010734047615,False,0.9137000000000001
mp-19039,Cd2 Mo2 O8,12,Tetragonal,88,149.5092183985517,6.049733854246376,12.45910153321264,1.26735355,-7.080878726666668,-1.814628006666668,False,2.4682
mp-1213935,Cd2 Ni2 P8 O24,36,Monoclinic,15,441.4198555144265,3.6639477940698413,12.261662653178513,1.88543342,-7.287888686111112,-2.411356851031747,True,0.042999999999999004
mp-1214259,Cd4 P56 Pb4,64,Orthorhombic,62,1446.548208186487,3.458690226304107,22.60231575291386,4.34900491,-12.72962715921875,-0.07842777369791701,False,1.3747999999999991
mp-913,Cd8 P16,24,Tetragonal,96,560.7532228378684,4.130574789836572,23.364717618244516,2.87265022,-12.884366167083334,-0.181319395734126,False,1.4556
mp-556171,Cd4 P8 Xe20 F88,120,Orthorhombic,33,2301.5265296483567,3.60397655748025,19.17938774706964,-2.96332505,-3.6224397545,-1.819887076476189,True,2.4563
mp-7904,Cd2 P8,10,Monoclinic,14,206.57294924246142,3.7990978568765783,20.65729492424614,5.06563875,-11.34340112,-0.120742532380951,False,0.6551
mp-5328,Cd2 P2 S6,10,Monoclinic,12,230.0018155238127,3.459377513709595,23.00018155238127,1.91434382,-11.169029075000001,-0.526616825282738,False,1.756199999999999
mp-1079559,Cd2 P2 Se6,10,Trigonal,148,261.691952841095,4.825860987294309,26.1691952841095,1.98874219,-3.954065545,-0.581421915334821,False,1.0486
mp-1077904,Cd1 Pb2 Cl2 O2,7,Monoclinic,12,162.38972529078478,6.439247833462596,23.198532184397827,2.33507838,-4.692486534285714,-1.552727685714284,False,2.435499999999999
mp-37216,Cd1 Pb1 F6,8,Trigonal,148,123.78929984610778,5.816432412251357,15.473662480763473,-2.8855226,-14.09077838125,-2.197492193750001,True,2.3364000000000003
mp-13984,Cd1 Pd1 F6,8,Trigonal,148,107.07479783154635,5.161466376544769,13.384349728943294,-2.24677194,-4.15019011,-1.9473143287499992,True,1.7751000000000001
mp-5858,Cd1 Pt1 F6,8,Trigonal,148,109.11691006002401,6.414157110926934,13.639613757503001,-1.35498027,-4.31737229875,-2.003090078749999,True,2.1901
mp-672,Cd2 S2,4,Hexagonal,186,102.03892478274858,4.702284793707707,25.509731195687145,0.90711455,-14.8461208475,-0.7761274614062491,True,1.125
mp-8459,Cd2 S2 O8,12,Orthorhombic,63,157.1996351851737,4.404317564057447,13.099969598764474,0.55190351,-5.972622763333334,-1.824253800416666,False,2.8625
mp-1321,Cd8 Sb8,16,Orthorhombic,61,471.39929543536505,6.599078064478864,29.462455964710315,3.82295437,-23.001521559375,-0.09586984937499901,False,0.020099999999999
mp-1198900,Cd4 Sb20 O4 F112,140,Monoclinic,14,2408.1849191011443,3.500560430975132,17.20132085072246,-2.65586208,-4.737654354428571,-2.4479159574285703,True,0.024200000000000003
mp-1070,Cd2 Se2,4,Hexagonal,186,115.97478237665474,5.480139995990648,28.993695594163686,0.52978313,-3.065567027500002,-0.837606193671875,True,0.5724
mp-1095493,Cd4 Se8,12,Cubic,205,307.12565988219865,5.846404192801385,25.59380499018322,2.7812826,-3.285896419166667,-0.635285370729166,False,0.6141999999999991
mp-9178,Cd2 Se4 O10,16,Monoclinic,15,241.68229768985867,4.814033428880755,15.105143605616167,0.50150262,-5.412548391250005,-1.326093619960942,False,2.9054
mp-761036,Cd2 Se2 O8,12,Orthorhombic,63,172.87635982121907,4.90581288409221,14.406363318434922,-0.08181014,-5.351390516666665,-1.3100962353906231,False,1.6838000000000002
mp-3078,Cd2 Si2 As4,8,Tetragonal,122,192.1074097836465,5.019279734997139,24.01342622295581,3.06561178,-4.038069480000001,-0.10667615875000001,True,0.40019999999999906
mp-560560,Cd12 Si12 O36,60,Monoclinic,14,766.931992499724,4.897479561547846,12.7821998749954,1.4090021,-6.781450762500001,-2.5356085155,False,2.8901
mp-4666,Cd2 Si2 P4,8,Tetragonal,122,169.76227734194765,3.960434743397996,21.220284667743456,3.92531796,-11.99330840625,-0.272582178988093,True,1.4257
mp-3829,Cd2 Sn2 As4,8,Tetragonal,122,227.44602229194643,5.5626907052611525,28.430752786493304,2.94334634,-3.694455995,-0.1169992175,True,0.006299999999999001
mp-754329,Cd2 Sn2 O6,10,Trigonal,148,131.04061486299892,7.073964607426622,13.104061486299893,2.99949297,-5.800440844000002,-1.8377478320000011,False,0.9762000000000001
mp-1199087,Cd4 Sn4 P56,64,Orthorhombic,62,1452.1577294287817,3.040577240363151,22.689964522324715,4.3454439,-5.08347136546875,-0.034333152968748004,False,1.444499999999999
mp-5213,Cd2 Sn2 P4,8,Tetragonal,122,204.35131321889776,4.762893133664439,25.54391415236222,3.73822178,-4.03502815625,-0.084895882321427,True,0.269499999999999
mp-406,Cd1 Te1,2,Cubic,216,70.71162283069633,5.636239502916918,35.355811415348164,1.77816521,-23.321846005,-0.5607400050000031,True,0.5846
mp-1203009,Cd2 Te2 Pb12 O20,36,Orthorhombic,20,630.0047211818222,8.662176663736346,17.500131143939505,4.33246436,-5.732646041111112,-1.518267788148148,False,2.0475
mp-1197724,Ce2 Al40 V4,46,Cubic,227,747.2452867130281,3.473897514249845,16.244462754631048,8.02424693,-8.663394529565217,-0.243318580869564,False,0.021799999999998
mp-1214275,Ce3 Al9 Br36,48,Trigonal,152,1926.73955751627,3.050673367727259,40.14040744825562,0.2395849,-4.023273529374999,-1.7222087931249992,False,0.2026
mp-1021508,Ce1 As12 Ru4,17,Cubic,204,310.41142448739595,7.721731745038402,18.259495558082115,6.63522722,-6.302099220000001,-0.47409743058823606,True,0.23819999999999902
mp-2646929,Ce8 B24 H96,128,Cubic,205,1464.4410916429429,1.674954586368494,11.440946028460491,-0.055558090000000004,-4.5696319559375,-0.399811802968749,False,0.34390000000000004
mp-1188930,Ce2 B8 Os8,18,Tetragonal,86,231.20105953836455,13.564071314723867,12.844503307686919,8.07229822,-9.042316087222222,-0.42409534574073804,False,0.22689999999999902
mp-768918,Ce2 Cl8 O32,42,Monoclinic,9,779.5320131767216,2.291719910777973,18.56028602801718,-2.3249950200000002,-5.25982319952381,-0.855132859047619,False,1.6159
mp-1021509,Ce1 Fe4 As12,17,Cubic,204,282.4226703224739,7.423349658669892,16.61309825426317,6.62471143,-6.044359057058813,-0.405623462941166,False,0.14670000000000002
mp-16272,Ce1 Fe4 P12,17,Cubic,204,232.87658602688083,5.242248830025205,13.698622707463578,9.09184086,-6.812036392941179,-0.647170686218489,False,0.520899999999999
mp-1181682,Ce1 Fe4 Sb12,17,Cubic,204,383.8166267251039,7.893994002801378,22.577448630888465,8.30863924,-5.602989857647059,-0.34622223470588204,False,0.23119999999999902
mp-23493,Ce2 I8 O24,34,Tetragonal,86,524.3357602973116,5.318725377859627,15.42164000874446,2.30003245,-5.537420243235293,-1.336918337941175,True,1.4876
mp-38564,Ce1 Mo6 S8,15,Trigonal,148,278.7203183825921,5.7925532336017085,18.58135455883947,6.70218967,-17.850693862,-1.080527324833332,False,0.338499999999999
mp-1021505,Ce1 P12 Os4,17,Cubic,204,264.17971264197257,7.999869328967046,15.539983096586623,8.59162355,-7.4380929500000015,-0.6244398973949571,True,0.28299999999999903
mp-10069,Ce1 P12 Ru4,17,Cubic,204,261.34444139276223,5.820627060904263,15.373202434868366,8.72263596,-7.036512740588229,-0.6823808385714201,False,0.191500000000001
mp-5843,Ce2 P6 O18,26,Orthorhombic,20,355.982049786194,3.517459245110276,13.691617299469,4.77999194,-8.103410987307694,-2.971486411071429,False,0.22279999999999903
mp-1019593,Ce8 P32 O96,136,Monoclinic,15,1928.676007240639,3.140858086194677,14.18144122971058,0.7243499,-7.993407087720588,-2.877267321165965,False,1.2397
mp-21947,Ce8 S16 O64,88,Orthorhombic,61,1142.053382379827,3.8646143912077,12.977879345225308,2.26422473,-7.319289491477287,-2.428620669204559,True,1.0168
mp-1105726,Ce1 Sb12 Os4,17,Cubic,204,409.97240036287104,9.567600931018244,24.11602355075712,7.9637103,-6.217029772941166,-0.311474804117635,True,0.0514
mp-1189811,Ce1 Sb12 Ru4,17,Cubic,204,412.29007413815174,8.077414120756778,24.25235730224422,7.91387457,-5.922148895882353,-0.476115077647058,False,0.043300000000000005
mp-541090,Ce4 Se8 O24,36,Monoclinic,14,530.4649969519743,4.933831242142414,14.735138804221508,2.00499906,-6.873880990555556,-2.138710006631945,False,1.2671000000000001
mp-21838,Ce8 Se16 O64,88,Orthorhombic,61,1259.5452224253222,4.493313545841641,14.313013891196844,1.18763168,-6.616144519318181,-1.842284440653407,False,1.2845
mp-1213885,Ce4 Al18 Ir6,28,Orthorhombic,63,469.9624809316184,7.771355635394219,16.784374318986373,8.58075792,-5.987297437142857,-0.8373413835714271,False,0.0205
mp-1213877,Ce4 Ga18 Ir6,28,Orthorhombic,63,474.47649467987304,10.389924949742438,16.945589095709753,6.40709135,-5.3607160621428545,-0.6719970276785671,False,0.0078000000000000005
mp-1199805,Ce8 H32 S12 O64,116,Monoclinic,14,1303.2749092055965,3.264218720270417,11.235128527634453,3.88834431,-6.540316051379309,-2.036257912327585,True,0.0454
mp-1069558,Ce2 Se1 N2,5,Trigonal,164,93.33041572991067,6.889176357675001,18.666083145982135,5.71486654,-8.316066302,-1.906792960468748,False,0.8943000000000001
mp-662527,Ce8 Si8 O28,44,Monoclinic,14,641.1657699146083,4.645187000021696,14.571949316241097,6.61626686,-8.778385632954546,-3.563816284318179,False,0.07010000000000001
mp-1195865,Ce4 Te8 Cl4 O22,38,Triclinic,2,715.3534820319043,4.816811452795452,18.825091632418534,3.41423812,-6.5746370589473795,-2.228753902719308,False,1.4548
mp-1196951,Ce4 Te14 Br4 O34,56,Monoclinic,13,1051.5933413182333,5.069539125131938,18.77845252353988,2.72865129,-6.300115439464286,-1.969177184166666,False,1.2014
mp-1105392,Ce6 Bi8 Pt6,20,Cubic,220,509.2733464638077,12.00894796486293,25.463667323190386,7.43917879,-6.017038161499999,-0.858599480499999,False,0.20420000000000002
mp-580802,Ce12 C4 Cl20,36,Monoclinic,15,959.0693226281593,4.222026274393593,26.64081451744887,5.43095476,-6.1295449033333345,-2.098186114166665,True,0.209399999999999
mp-558375,Ce6 Cu2 Si2 S14,24,Hexagonal,173,521.8013055823599,4.68714142398412,21.74172106593166,7.174637,-6.497134664583334,-1.805143724374999,False,0.0071
mp-1188608,Ce6 Sb8 Pt6,20,Cubic,220,475.2763822284672,10.430087103206226,23.76381911142336,7.91174835,-36.170512402,-1.189482412000001,False,0.2721
mp-669378,Ce6 Si4 S16 Br2,28,Monoclinic,15,671.211266530767,4.022350868441884,23.971830947527394,5.82390234,-6.3044996300000005,-1.775549005357139,False,0.0883
mp-542133,Ce6 Si4 S16 Cl2,28,Monoclinic,15,665.3805625544144,3.835732692492674,23.763591519800514,5.90847489,-6.349384106071429,-1.805319462499999,False,0.1024
mp-555409,Ce6 Si4 S16 I2,28,Monoclinic,15,686.0308896361659,4.162989592960993,24.501103201291638,6.02814648,-6.246499280000001,-1.7256153639285712,False,0.1101
mp-866605,Ce6 Si2 Ag2 S14,24,Hexagonal,173,533.4971992288469,4.860295438228026,22.22904996786862,6.90846231,-6.34063535,-1.7533334924305541,False,0.019699999999999003