material_id,composition,nsites,crystal_system,space_group,volume,density,density_atomic,efermi,energy_per_atom,formation_energy_per_atom,is_gap_direct,band_gap
mp-569435,K4 Bi4 P8 Se24,40,Monoclinic,14,1121.0169056043317,4.644025039437796,28.025422640108292,1.89374828,-4.3620771765,-0.679295181559821,False,1.613999999999999
mp-23136,K2 Bi2 W4 O16,24,Monoclinic,15,346.5239280636538,7.128121938287872,14.438497002652241,2.18092772,-8.02977714875,-2.152997771020833,False,2.7107
mp-555393,K8 Bi48 Br8 O72,136,Cubic,230,2682.8556790037705,7.510914155180155,19.72687999267478,3.14887194,-5.844030873823529,-1.688726687779412,True,2.3328
mp-558501,K8 Bi48 I8 O72,136,Cubic,230,2740.192264626261,7.581609471931315,20.148472534016626,3.32115464,-5.80142269735294,-1.65276168307353,True,2.291299999999999
mp-504669,K4 Bi4 F24,32,Cubic,206,545.129592827531,4.411647616652286,17.035299775860345,-3.52277023,-4.588410917187499,-2.525346131843749,False,2.7061
mp-30988,K2 Bi2 O4,8,Monoclinic,15,151.89041774010815,6.123883749157043,18.98630221751352,2.13503775,-5.45149849375,-1.7221669830625,True,1.8514
mp-29799,K12 Bi12 O36,60,Cubic,201,1020.0944985470918,5.7835495813543005,17.001574975784862,1.19517403,-5.545642485500002,-1.572585075950002,True,0.49140000000000006
mp-23572,K4 Bi4 P8 S28,44,Monoclinic,14,1151.0827790937833,3.084146401755438,26.16097225213144,2.11938692,-4.871953232727272,-0.7973288640032461,False,2.3782
mp-1223443,K1 Bi1 S2,4,Trigonal,166,108.9948255442475,4.756507849741324,27.248706386061876,2.5634656700000003,-21.067771605,-0.920137643593751,False,1.4158
mp-1106094,K4 C4 O12,20,Monoclinic,14,350.45565477951186,1.8783703459986012,17.522782738975593,-2.07719981,-6.851735725499999,-1.810952079449999,False,0.875599999999999
mp-720856,K4 Ca4 H24 N12,44,Monoclinic,14,502.87195006599705,1.680695846203255,11.428907956045387,2.67841123,-5.014748815454545,-0.603585045431817,False,2.5876
mp-1200343,K4 Ca8 Cd8 Sb12,32,Orthorhombic,62,973.3451149014007,4.840683248954925,30.417034840668773,3.8313559,-3.132068636875,-0.7008694390312491,True,0.06709999999999901
mp-773137,K2 Ca2 Bi2,6,Tetragonal,129,247.1039017742372,3.872828022680972,41.18398362903953,1.36458991,-24.709572159999997,-0.856628366249997,False,0.8270000000000001
mp-1018736,K2 Cd2 As2,6,Tetragonal,129,165.82359646810366,4.534907737424708,27.637266078017277,1.91391482,-2.650592316666665,-0.39675816824999804,False,0.16560000000000002
mp-1105494,K4 Cd4 Ge4 As8,20,Triclinic,2,560.7747566793515,4.429793955368801,28.038737833967577,1.7486781100000002,-3.497636435999999,-0.28670586944999904,False,0.688499999999999
mp-540753,K4 Ce4 P16 O48,72,Monoclinic,14,993.0934273444765,3.311416372616465,13.792964268673284,4.50395729,-7.789264478472223,-2.894500825462302,True,0.34090000000000004
mp-1211829,K2 Ce2 S4 O16,24,Triclinic,2,338.71586847497395,3.640949858641004,14.113161186457248,4.16150049,-7.092923907916666,-2.515530010604165,False,0.339599999999999
mp-669330,K4 Ce8 Cu4 Se24,40,Orthorhombic,70,1062.7193218215682,5.354106254808504,26.567983045539204,4.04481892,-5.3108740235,-1.502879523631249,True,0.083999999999999
mp-504644,K4 Ce4 F16,24,Orthorhombic,62,369.1302484180638,4.592229557192885,15.380427017419324,4.45647306,-6.39488124125,-3.940926392458333,False,0.04
mp-22809,K2 Ce2 Si2 S8,14,Monoclinic,4,363.4479192143103,3.066244859979065,25.96056565816502,4.61730447,-12.762263292857142,-1.6518842042857131,False,0.0743
mp-2759499,K4 Co4 F16,24,Tetragonal,129,331.033870246379,3.491793632550049,13.79307792693246,-0.28508474,-7.7897323525,-2.496964541458333,False,1.1154
mp-557981,K24 Co24 P24 O96,168,Hexagonal,173,2543.1356263748007,3.0245067296306,15.137712061754765,2.31904393,-7.129516213095237,-2.347787071937073,False,0.7395
mp-1211679,K2 Cr2 Mo4 O16,24,Monoclinic,15,387.9210564773717,3.518401822174781,16.16337735322382,-0.79989416,-8.16001174875,-2.155061294354167,False,2.9629000000000003
mp-558367,K2 Cr4 Fe2 O16,24,Monoclinic,12,388.65298091337155,2.793655142667693,16.193874204723816,-0.78849094,-7.5100613604166675,-1.8024635343541662,False,1.7437
mp-19335,K2 Cr6 O16,24,Monoclinic,12,353.23115922648725,3.037613962382392,14.717964967770301,-0.94700401,-7.748981526249999,-1.942798178520831,False,1.9034
mp-1189266,K2 Cr6 S10,18,Monoclinic,12,347.73859312884576,3.394359200758243,19.31881072938032,4.76931708,-6.756584416111116,-1.114105530527781,False,0.49260000000000004
mp-12178,K1 Cr5 S8,14,Monoclinic,12,263.5104420797055,3.501164908208904,18.822174434264678,4.71712664,-6.98001826142856,-1.086912289089272,False,0.236599999999999
mp-1104473,K1 Cr5 Se8,14,Monoclinic,12,308.5380287672373,5.009305838755182,22.038430626231236,3.71932095,-6.436376625714286,-0.9103838475714271,False,0.0037
mp-556365,K2 Cr2 F6,10,Monoclinic,12,143.85218425808222,3.418906474957139,14.385218425808223,2.20764015,-6.233367434,-2.9281725704499992,False,1.4898
mp-5053,K24 Cr24 F96,144,Orthorhombic,62,2281.277774862887,2.918955429686455,15.842206769881159,-1.53561204,-6.175260197083333,-3.101955748291666,True,2.9232
mp-20076,K1 Cr1 F6,8,Trigonal,148,109.25573950275457,3.117011113540737,13.65696743784432,-3.07525536,-5.402309915,-2.618868484656249,False,1.3980000000000001
mp-18387,K4 Cr4 P8 O28,44,Monoclinic,14,599.791144093435,2.935058305937169,13.631616911214433,1.04250219,-7.798377442272727,-2.684641871503246,False,2.875499999999999
mp-7147,K1 Cr1 P2 S7,11,Monoclinic,5,262.854058733334,2.384777289892525,23.895823521212183,2.44395923,-5.466472051818182,-0.867937395821427,False,1.1285
mp-4026,K1 Cr1 S2,4,Trigonal,166,81.739739482668,3.153376581830179,20.434934870667,3.77838122,-5.946246675000001,-1.180962593062499,False,1.1644
mp-1223464,K1 Cr1 Sn1 S4,7,Monoclinic,6,172.649084469169,3.251503736337137,24.664154924167,2.9632891,-5.529873695714292,-1.0516697931785761,False,0.10299999999999901
mp-558063,K2 Cu2 Bi4 S8,16,Orthorhombic,36,407.447380678243,5.28885887404528,25.465461292390188,3.93955068,-4.48288184625,-0.78737143590625,False,0.721399999999999
mp-554421,K4 Cu8 As4 S12,28,Triclinic,2,588.6755170829217,3.805908475074844,21.024125610104345,3.89500935,-4.445391303928572,-0.671822118535714,False,1.1692
mp-21578,K2 Cu8 As6 O24,40,Monoclinic,15,517.8482579369586,4.553646651209904,12.946206448423965,2.39856992,-5.9789392425,-1.4332344394875,False,0.09430000000000001
mp-27450,K4 Cu4 Cl12,20,Monoclinic,14,483.28914131718824,2.872467970229371,24.164457065859413,0.52616397,-8.355593913,-1.29111858725,False,0.268199999999999
mp-7911,K4 Cu4 O4,12,Tetragonal,139,234.5558145823458,3.359754678548887,19.546317881862148,1.520070609999999,-4.610652090833333,-1.217806291583332,False,1.029399999999999
mp-3982,K2 Cu2 O4,8,Orthorhombic,63,137.87103294852034,3.24332273163737,17.233879118565042,0.17350423,-5.15639742375,-1.3747728230624991,False,0.8706
mp-622199,K4 Cu4 P8 Se20,36,Monoclinic,14,966.4279416712469,3.84464040094824,26.84522060197908,2.90938088,-4.339813009444445,-0.6130262503616061,False,1.291099999999999
mp-649472,K8 Cu8 P8 O32,56,Orthorhombic,61,840.6567936917158,3.122782370978938,15.01172845878064,1.5187806,-6.549640511964285,-2.20136994937755,True,0.1287
mp-568611,K12 Cu12 P12 Se36,72,Monoclinic,14,1940.7451865992705,3.8040635749527,26.9547942583232,2.40006259,-4.242857046111111,-0.720559654265129,False,1.0928
mp-11114,K2 Cu2 Pd2 Se10,16,Monoclinic,11,412.02525609919763,4.867372794417467,25.751578506199852,2.34675109,-4.2016870825,-0.715435133621094,False,0.9195000000000001
mp-28270,K4 Cu4 S4,12,Orthorhombic,62,351.6022171810362,2.544808244700729,29.300184765086353,1.0280585,-4.044643202500001,-0.9216645490833331,False,1.8615
mp-1195095,K4 Cu4 Sb12 F72,92,Orthorhombic,62,1632.132002122719,3.295966775999704,17.74056524046434,-2.17612317,-4.887781510652174,-2.62400225575,True,0.2823
mp-7435,K2 Cu2 Se2,6,Hexagonal,194,143.81853081285377,4.193632532722193,23.969755135475626,2.87036169,-3.7393670599999993,-0.830537769864582,True,0.17619999999999902
mp-7436,K2 Cu2 Te2,6,Hexagonal,194,171.67185067239487,4.454191569724245,28.61197511206581,3.58372901,-3.514691195000002,-0.7233970996388901,True,0.6037
mp-15785,K1 Dy1 S2,4,Trigonal,166,103.13302042346363,4.27847668418345,25.78325510586591,1.69879985,-15.6886131725,-2.171096841093749,False,2.3337
mp-16560,K2 Er4 Cu2 Se8,16,Orthorhombic,63,409.09905694627736,6.112894738615118,25.568691059142335,2.9250438,-5.2692255375,-1.725518047078123,False,0.9440000000000001
mp-554741,K4 Er4 P8 S28,44,Monoclinic,14,1090.4266108045647,3.001566286425095,24.782422972831014,2.12729621,-5.3368793909090915,-1.200647340366882,True,2.6723
mp-4326,K1 Er1 S2,4,Trigonal,166,100.96323018173854,4.448696103132344,25.240807545434635,1.78888375,-16.168824245,-2.165399928177082,False,2.3727
mp-9263,K1 Er1 Te2,4,Trigonal,166,140.23307471677214,5.465429105597077,35.058268679193034,2.869152719999999,-24.3286123475,-1.634075416770834,False,1.3304
mp-1211862,K4 Eu4 F16,24,Orthorhombic,62,347.7034373181903,5.101551823488093,14.487643221591263,-1.5120621,-6.779739865833331,-3.600591342874999,False,0.02
mp-10382,K2 Eu2 P2 Se8,14,Monoclinic,11,417.6085347880711,4.277518965905371,29.829181056290793,2.72170028,-5.644210961428568,-1.241553665181119,False,0.08959999999999901
mp-976802,K2 F4,6,Tetragonal,136,120.93884935973416,2.117093666735462,20.156474893289026,-4.11251049,-3.770486013333333,-2.117461189083333,False,1.445599999999999
mp-867934,K8 F24,32,Orthorhombic,19,554.2412690328064,2.303213934479601,17.3200396572752,-3.91580577,-3.3569040821875,-1.6386723702500001,False,0.09240000000000001
mp-19362,K2 Fe2 Mo4 O16,24,Trigonal,164,392.03331788255747,3.514100936720712,16.334721578439893,-0.8756168,-7.914534282083321,-2.008169349354155,True,2.4118
mp-20968,K4 Fe4 S8 O32,48,Monoclinic,12,694.7660542997814,2.7444545172587143,14.474292797912113,0.10338909,-6.781761590208333,-1.9932784145625,False,2.1783
mp-654225,K4 Fe4 Se8 O24,40,Orthorhombic,62,603.2959777952361,3.840868707458704,15.082399444880902,1.05126641,-6.19782696125,-1.5697289694437502,False,2.2925
mp-559163,K4 Fe4 As8 O28,44,Triclinic,2,663.7975063691442,3.5700703406495373,15.086306962935096,0.36387061,-6.700644495,-1.829975128386363,False,2.6985
mp-1211520,K4 Fe4 Br16,24,Orthorhombic,52,824.5049974532344,3.339661567600842,34.35437489388477,-1.17242737,-4.008136509166666,-1.316606997041666,True,0.9533
mp-28435,K4 Fe4 Cl16,24,Monoclinic,4,704.4579887467532,2.232305864393761,29.352416197781384,-0.37608526000000003,-4.46533833875,-1.6327446499583331,False,0.16410000000000002
mp-555631,K8 Fe8 F32,48,Orthorhombic,62,714.470121590657,3.178270587399291,14.884794199805354,-2.8801786700000003,-5.713793319583334,-2.837659914125,False,2.7092
mp-559464,K16 Fe16 O32,64,Orthorhombic,61,1002.9626950383653,3.362714362781847,15.671292109974457,1.64300027,-6.60618519703125,-1.73185696134375,True,2.1388
mp-541673,K4 Fe4 P8 O28,44,Monoclinic,14,581.1726922832997,3.073074489332921,13.208470279165903,0.5563856500000001,-7.541400801818176,-2.535213072866876,False,1.9052000000000002
mp-1223574,K1 Fe1 Sn3 O8,13,Monoclinic,8,179.23698634948636,5.3647736779759665,13.787460488422028,3.9153462,-6.73068047,-2.02192704401923,False,1.4194
mp-181,K3 Ga9,12,Tetragonal,119,285.75435797216085,4.328097253195336,23.812863164346737,2.29525423,-2.7265304725000012,-0.1726160249375,False,0.21629999999999902
mp-1223528,K4 Ga4 Ge4 S16,28,Monoclinic,4,771.1301048661074,2.6677953054235273,27.540360888075266,0.61016286,-4.677214411071428,-1.057795572464284,True,2.3828
mp-29402,K4 Ga4 I16,24,Monoclinic,14,1084.9672336722226,3.773833195342796,45.206968069675945,-0.19600991,-2.837877645416663,-1.128624944541663,False,2.605
mp-17650,K8 Ga8 S16,32,Monoclinic,15,798.6545876403778,2.876761941532351,24.957955863761807,0.90784654,-4.4012842990625,-1.292238078999998,True,2.9211
mp-29383,K16 Ga16 Sb32,64,Orthorhombic,64,2094.935015070338,4.468503236369736,32.73335961047403,2.96227511,-3.5186319109375,-0.414264854625,False,1.013399999999999
mp-29374,K4 Ga4 Sb16,24,Orthorhombic,62,801.8159686317954,4.936050194228205,33.408998692991474,3.87517718,-3.7949060633333263,-0.34899427912499204,True,0.2906
mp-17965,K8 Ga8 Te16,32,Monoclinic,15,1156.6452197160738,4.180860851163335,36.14516311612731,1.77454387,-3.5149489625,-0.903429579520833,False,1.5332
mp-1194808,K2 Gd2 B8 H32,44,Monoclinic,14,487.0453193705641,1.743706128636832,11.069211803876456,-0.91849426,-4.775569334545455,-0.400672876996212,False,2.4168
mp-9806,K2 Gd2 C4 O12,20,Monoclinic,15,278.8696289566731,3.767626258645052,13.943481447833657,0.4138133,-8.888809485500001,-2.553550587725001,False,2.7427
mp-1224518,K1 Gd1 Nb6 Cl18,26,Trigonal,146,666.3967167743994,3.468462033642266,25.630642952861514,2.28759117,-6.102632230384615,-1.906897899509616,False,0.386
mp-1211663,K4 Gd8 Cl28,40,Monoclinic,14,1148.2031081739005,3.481131254973724,28.705077704347513,1.66468554,-16.062037091249998,-2.474102409374998,True,2.5883000000000003
mp-861926,K2 Gd4 Cu2 Se8,16,Orthorhombic,63,429.4745895760685,5.668084188896455,26.842161848504283,2.65525359,-7.67764620875,-1.756837860828124,False,0.7999
mp-15784,K1 Gd1 S2,4,Trigonal,166,106.16125112827,4.07431514375186,26.5403127820675,1.79235657,-18.5008831,-2.129566249843748,True,1.8308
mp-20420,K1 Gd1 Te2,4,Trigonal,166,145.26271939030957,5.1617758207604965,36.31567984757739,2.72595571,-26.70886803,-1.6464385659375012,False,0.8263
mp-2146,K32 Ge32,64,Cubic,218,2060.1640873137276,2.882035481007242,32.19006386427699,1.60548197,-3.07934357703125,-0.202144788156249,False,0.9083000000000001
mp-1029404,K2 Ge4 N6,12,Orthorhombic,36,157.19252230691484,4.783222284349028,13.09937685890957,4.08546377,-6.1937987725,-0.29508899454166804,False,1.5719
mp-554859,K8 Ge8 Au8 S24,48,Monoclinic,14,1310.253695911072,4.105171709167109,27.296951998147335,1.00670014,-4.433049506458333,-0.8591564597499991,False,2.220399999999999
mp-866646,K4 Ge4 Bi4 S16,28,Monoclinic,14,751.5577912305343,3.9680071452687042,26.841349686804797,2.23706434,-4.6492350828571425,-0.9066822031785701,False,1.804799999999999
mp-998612,K2 Ge2 Br6,10,Monoclinic,11,342.7646286889748,3.40523440443936,34.27646286889748,-0.80283708,-3.520239458,-1.38719202145,False,2.902599999999999
mp-998613,K2 Ge2 Cl6,10,Trigonal,161,313.5309319788258,2.310196857989364,31.35309319788258,0.17458284000000002,-3.9156820330000013,-1.655676837450001,True,2.8924000000000003
mp-6955,K4 Ge4 N4 O4,16,Orthorhombic,29,251.86428388303253,3.73807846103476,15.741517742689533,1.1874323,-6.033515937500001,-1.2733568555625001,False,2.6817
mp-14352,K8 Ge8 Sb8 O40,64,Orthorhombic,33,988.3460311314969,4.213675586875312,15.44290673642964,3.62651815,-6.439381119531251,-2.1114806391875,False,2.717
mp-24428,K2 H4 N2,8,Monoclinic,11,104.73266187158909,1.747885960114227,13.091582733948636,-0.20540668,-5.9452645175,-0.430954664999999,True,2.0676
mp-974267,K2 H16 N6,24,Orthorhombic,20,220.24608888236511,1.344769053070374,9.176920370098546,-0.225000099999999,-5.47011578125,-0.382997851249999,False,2.5404
mp-1211876,K4 Hf24 C4 Cl60,92,Orthorhombic,51,2522.577674042681,4.354708440213595,27.419322543942183,2.15623176,-6.434328620978261,-2.180793342923913,False,1.1511
mp-561312,K4 Hf4 Cu4 F28,40,Orthorhombic,63,522.9450546568127,5.259960808531684,13.073626366420317,0.08669814,-6.1256854525,-3.267212247725,False,0.44530000000000003
mp-9855,K2 Hf2 Cu2 S6,12,Orthorhombic,63,260.54574531585934,4.8096739623457765,21.712145442988277,3.82147506,-6.121875126666667,-1.521401105791665,True,0.757
mp-1211367,K1 Hg5 Cl11,17,Monoclinic,12,484.005671666407,4.913049696415424,28.470921862729824,1.40543191,-19.725042022941174,-0.8700935275735271,False,2.6479
mp-7483,K4 Hg4 F12,20,Cubic,221,371.80415431650613,5.300151193979543,18.590207715825308,-1.16605198,-3.63507531,-2.198555532950001,False,0.6082000000000001
mp-11606,K2 Ho4 Cu2 S8,16,Orthorhombic,63,357.95228633809575,5.202772132429334,22.372017896130984,3.47127269,-5.7744163,-1.901994600906248,False,1.036
mp-16559,K2 Ho4 Cu2 Se8,16,Orthorhombic,63,412.29782586932674,6.027953242500381,25.76861411683292,2.940638,-5.27921642875,-1.728018774578123,False,0.9224000000000001
mp-15786,K1 Ho1 S2,4,Trigonal,166,102.13709948724274,4.359707361879431,25.534274871810684,1.67989461,-15.91163328,-2.169231776093749,False,2.3505000000000003
mp-628908,K8 I8 Cl16,32,Monoclinic,14,1092.6019267090776,2.8804362005113093,34.143810209658675,0.53435649,-2.966061144687499,-1.377944160249999,False,2.3622
mp-647366,K4 I4 Cl16,24,Monoclinic,14,819.7824257653934,2.494020046278826,34.15760107355806,-1.06570697,-2.89173236333333,-1.21680677370833,False,2.1836
mp-23487,K4 I4 O12,20,Triclinic,1,350.6688937400874,4.053475826557709,17.53344468700437,1.39376459,-4.866476067999999,-1.366622997449999,True,2.7868
mp-23562,K2 I2 O8,12,Tetragonal,88,204.52228151704813,3.734796980402538,17.04352345975401,-0.42471356,-4.907826036666667,-1.166621643708333,False,2.349199999999999
mp-1195253,K4 In4 Te8 O24,40,Orthorhombic,62,683.4688824053914,4.90883721543481,17.086722060134782,5.56366618,-5.752468548,-1.765976419724999,True,2.8719
mp-1224365,K3 In21 S24,48,Monoclinic,6,1228.7512112001448,4.45697422184681,25.598983566669684,5.14324989,-4.200348974166668,-0.853320070036457,True,1.1777
mp-28529,K4 In4 Br12,20,Trigonal,147,697.2808897524967,3.749623312357553,34.86404448762484,-0.2871512,-3.2797647855,-1.519488171283333,False,2.3376
mp-22932,K4 In4 Br16,24,Orthorhombic,52,876.2497157137601,3.589473956320523,36.510404821406674,-1.33818704,-3.274070830416666,-1.534349229402777,True,2.8234
mp-1018031,K1 In1 O2,4,Trigonal,166,58.232414910174086,5.301502386549792,14.558103727543521,3.14358409,-5.357643565,-1.911027195979166,False,2.077499999999999
mp-22583,K1 In1 P2 S7,11,Monoclinic,5,291.6446958155119,2.507045797513457,26.513154165046537,2.02186215,-4.790941383636364,-0.819122520972942,True,2.049
mp-505412,K8 In8 S16,32,Monoclinic,15,911.274532764875,3.178619715215987,28.477329148902342,1.46133522,-4.224239143437501,-1.182423493166666,False,2.0145
mp-505700,K8 In8 Se16,32,Monoclinic,15,1032.312618527746,4.012864701954274,32.259769328992064,1.14800495,-3.8535053481249992,-1.13291374277604,True,1.8437000000000001
mp-568379,K8 In8 Sn8 Se32,56,Monoclinic,14,1945.866851295826,4.017423000455844,34.74762234456832,1.176190979999999,-4.067899571964285,-0.9416479674345231,False,1.7413
mp-19851,K2 In2 Te4,8,Tetragonal,140,280.8192108768498,4.838369830978328,35.102401359606226,3.11683549,-3.445765269999999,-0.9014764568124971,False,0.9868999999999991
mp-560649,K4 La4 P8 S24,40,Monoclinic,14,1010.0728468696201,2.8430409193409982,25.251821171740502,2.76823589,-5.48838378825,-1.315535659903571,False,2.6738
mp-571662,K4 La4 P8 Se24,40,Monoclinic,14,1138.293634338663,4.164638895302953,28.457340858466573,2.47512835,-4.92170208925,-1.134322814809821,False,1.974699999999999
mp-571240,K4 La20 C8 Cl40,72,Monoclinic,14,1973.948650191582,3.742373825827128,27.415953474883082,4.4135376,-5.8108973298611115,-2.324554872486112,False,1.954099999999999
mp-1195137,K2 La10 V4 O26,42,Monoclinic,12,682.3448387408243,5.078880440139059,16.24630568430534,3.60157856,-8.545240358809522,-3.387968432488095,True,2.9836
mp-541211,K4 La4 Cr8 O32,48,Monoclinic,14,716.2982720805927,3.801803697046709,14.922880668345682,0.29993375,-7.7671749750000085,-2.354078324354174,False,2.669699999999999
mp-559043,K2 La2 Ge2 S8,14,Monoclinic,4,376.86461375652317,3.3390479742601222,26.918900982608797,2.5552872,-5.480385117857144,-1.588407553178571,False,2.303599999999999
mp-21097,K2 La2 Ge2 Se8,14,Monoclinic,4,437.3679370070321,4.301496982686799,31.24056692907372,2.23382737,-4.986652021428571,-1.461787650946428,False,1.621999999999999
mp-15781,K1 La1 S2,4,Trigonal,166,116.44263695445684,3.452967014010495,29.11065923861421,2.51456866,-15.148483055,-2.19022247859375,False,2.7005
mp-861938,K2 La2 Si2 S8,14,Monoclinic,4,367.79414483459686,3.019080279126651,26.271010345328346,2.60457874,-12.646799682142857,-1.692970387142858,False,2.8686
mp-861606,K2 La2 Si2 Se8,14,Monoclinic,4,425.8223766105614,4.070635976134484,30.415884043611527,2.29878699,-5.203826018571428,-1.564348765946428,False,2.208099999999999