material_id,composition,nsites,crystal_system,space_group,volume,density,density_atomic,efermi,energy_per_atom,formation_energy_per_atom,is_gap_direct,band_gap
mp-22789,Dy4 V4 O12,20,Orthorhombic,62,224.4936902037986,7.735287972077501,11.22468451018993,4.68411545,-9.005861853999999,-3.296628931333332,False,1.6567999999999992
mp-18784,Dy2 V2 O8,12,Tetragonal,141,159.62467366853392,5.77227133580865,13.302056139044494,0.54534765,-8.791597553333334,-3.209243283611112,False,2.9764
mp-549728,Dy2 Zn2 P2 O2,8,Trigonal,166,133.39878131915347,6.843429365676406,16.674847664894184,4.72475094,-6.11429923625,-2.053910819077379,False,1.2613
mp-1104636,Er2 Al6 C6,14,Hexagonal,194,171.95506285727595,5.489626212409525,12.282504489805424,6.79747373,-6.526117707857144,-0.313197311071429,False,0.026099999999999002
mp-1225120,Er2 Cu6 S6,14,Trigonal,148,240.10117694727782,6.28099799774077,17.1500840676627,5.43863155,-13.939927005714285,-1.001238375252975,False,1.445599999999999
mp-2717767,Er4 Cu12 Te12,28,Orthorhombic,58,666.0707169787497,7.386340661198353,23.788239892098204,5.75124124,-21.015490711785713,-0.627276983690478,True,0.368399999999999
mp-1212805,Er2 Zn6 P6,14,Hexagonal,194,266.9958896101839,5.677107087980965,19.071134972155992,4.01135427,-13.246816097142856,-0.723462966037414,False,0.3703
mp-541347,Er4 Au10 F42,56,Triclinic,2,884.7654900914579,6.449919346262614,15.799383751633176,-1.98349767,-4.5744188133928585,-2.228142117142857,False,1.5935000000000001
mp-3041,Er4 Cd2 S8,14,Cubic,227,346.86744660515416,5.507140058985257,24.77624618608244,1.88588945,-5.759066599285715,-1.952082873571427,True,1.1479
mp-1225159,Er4 Cr2 Sb2 O14,22,Orthorhombic,74,268.3244588981255,7.677141360990336,12.196566313551159,4.51261055,-8.291534973636363,-3.059424667727272,False,2.1271
mp-1232129,Er4 Mg2 S8,14,Cubic,227,336.701524941324,4.804375925043277,24.050108924380286,1.9870706500000002,-6.076131674285713,-2.173367973571426,True,2.0129
mp-19256,Er4 Mn4 O14,22,Cubic,227,237.5485573616032,7.778680357968908,10.797661698254691,2.53761924,-8.560741063636364,-2.915723314623823,False,1.1678
mp-31122,Er8 Mo4 O24,36,Monoclinic,15,444.5666525188723,7.865620086709966,12.349073681079785,2.70211932,-8.718492294444442,-3.199730765555552,False,1.8785
mp-1225956,Er16 Pb8 S32,56,Orthorhombic,36,1378.7313672157075,6.455352618888962,24.620202985994776,5.29709873,-6.117178780000001,-1.916961214285712,False,2.1115
mp-756440,Er4 Pt4 O14,22,Cubic,227,259.562032242043,10.705285385634815,11.798274192820138,3.78936715,-7.561057952272725,-2.478018743636361,False,1.4127
mp-2234,Er12 S18,30,Monoclinic,11,691.5920547737513,6.204950661786847,23.053068492458376,3.24441903,-20.756785843666666,-2.365612327687499,True,1.4691
mp-209,Er8 Se12,20,Orthorhombic,70,559.6653396140929,6.781400486450379,27.983266980704645,1.60386282,-24.3309633985,-2.173853193270832,False,0.7923
mp-13975,Er2 Se1 O2,5,Trigonal,164,83.18486210013481,8.892623140656212,16.63697242002696,3.61363396,-8.013100429999998,-3.507646208468746,False,2.1741
mp-3688,Er4 Sn4 O14,22,Cubic,227,276.1501568937193,8.225226497374631,12.552279858805424,4.19991874,-7.7391508386363626,-3.030940987272725,True,2.6825
mp-14643,Er8 Te12,20,Orthorhombic,70,685.6202869916305,6.94923755772658,34.281014349581525,3.5167289,-30.465381566,-1.644872913333336,True,0.05210000000000001
mp-1178355,Er2 Te1 O2,5,Tetragonal,139,92.37788810315193,8.881998351674628,18.475577620630386,5.05758415,-7.7717907440000005,-3.3368576393333322,False,0.603499999999999
mp-1225541,Er2 Te1 S2,5,Orthorhombic,71,145.76339722326776,5.995026044718351,29.15267944465355,2.539002769999999,-24.004878650000002,-2.137260088458333,False,1.77
mp-1192137,Er4 Tl2 Cu6 S10,22,Orthorhombic,63,440.5475411348594,6.7082632231526915,20.0248882334027,4.97716622,-5.367956743181818,-1.322836053712121,False,1.428799999999999
mp-1105955,Er6 Cu6 Sb8,20,Cubic,220,427.5057322895054,9.162595758928408,21.375286614475268,6.91985528,-24.502034279500002,-0.787838637499999,False,0.33389999999999903
mp-555081,Er6 Cu2 Ge2 S14,24,Hexagonal,173,484.8613138377833,5.9071686681035525,20.20255474324097,4.69688398,-5.987441995,-1.704616334374998,True,1.7469000000000001
mp-558980,Er6 Cu2 Si2 S14,24,Hexagonal,173,469.39606735024165,5.786560166823306,19.558169472926735,4.63342126,-16.53285498625,-1.729366680390626,False,1.875999999999999
mp-1198546,Er24 Ga16,40,Tetragonal,140,960.2269108822682,8.871035209160073,24.005672772056705,3.19025925,-25.57414098125,-0.6417695012499991,False,0.002499999999999
mp-7290,Er6 Ga2 S12,20,Orthorhombic,36,443.56334475061095,5.719450006845168,22.17816723753055,3.10392999,-18.1228788345,-1.979971240187498,False,2.106499999999999
mp-1213004,Er6 Ru2 I6,14,Monoclinic,11,443.25007697197356,7.36938613219635,31.6607197837124,4.6995629,-5.093277087857144,-1.157620399999999,False,0.0495
mp-1189719,Er3 Tl2 Cu5 S8,18,Monoclinic,8,363.1453691866651,6.789451244166353,20.174742732592506,5.14518807,-5.253112211666666,-1.250389403148147,False,1.2826
mp-1212833,Er8 C14,22,Monoclinic,14,305.18156924331214,8.19558057868982,13.871889511059642,4.02005353,-7.834665401818184,-0.300889612045456,False,0.39120000000000005
mp-1212949,Er16 Cd4 Pt4,24,Cubic,216,612.8294262835834,10.584138461364242,25.53455942848264,3.51258776,-4.82850305416667,-0.6114999291666671,False,0.0158
mp-1212947,Er16 Mg4 Ni4,24,Cubic,216,604.4140704501573,8.264417138383418,25.183919602089887,3.3664215,-4.484769968333332,-0.204522979166663,False,0.022299999999999
mp-1212840,Er8 Os2 Br8,18,Monoclinic,15,502.3311484880533,7.793980611409755,27.907286027114072,4.69302514,-5.530251932222222,-1.525137619999998,False,0.7195
mp-1192836,Er8 Zn10 Ge12,30,Orthorhombic,36,602.1099582221811,7.898094785894687,20.070331940739372,4.66739076,-4.022028734333333,-0.534844706333332,True,0.020800000000000003
mp-1213202,Er5 Re2 O12,19,Monoclinic,12,242.11319367920797,9.606746432161426,12.742799667326736,4.12033971,-9.015373895789475,-3.377986815526317,False,0.0117
mp-29401,Er20 C8 Br36,64,Monoclinic,14,1824.357582221959,5.750500756196676,28.50558722221811,1.57970867,-5.387089984843751,-1.88531224421875,True,0.922099999999999
mp-1198488,Er12 Al86 Mo8,106,Hexagonal,193,1860.251670709407,4.548047788271321,17.549544063296292,7.40101799,-4.686396565471698,-0.311893282641508,True,0.015500000000000002
mp-1189721,Er6 Co1 Br10,17,Triclinic,2,514.1261481249934,6.012412794231784,30.242714595587845,2.711562589999999,-4.855938755882351,-1.8612802305882332,False,0.0176
mp-1196832,Er6 H40 N8 O49,103,Triclinic,2,1021.0496650618085,3.154863931950129,9.913103544289402,2.3504989800000002,-6.157185591747574,-1.5710760615048551,False,2.9432
mp-1188388,Er6 Ni1 I10,17,Triclinic,2,621.9560273343593,6.224236823136085,36.58564866672702,4.04040921,-4.259300231764705,-1.4106781323529392,False,0.6135
mp-679936,Er14 C4 I24 N2,44,Triclinic,2,1558.6713537788778,5.8204519160480395,35.42434894951995,2.570107209999999,-5.035703453409091,-1.533076554318181,False,1.2187000000000001
mp-1105583,Er7 Co1 I12,20,Trigonal,148,736.0143163744732,6.210204691736808,36.80071581872366,3.98029804,-4.294275478500003,-1.424495490000002,False,0.439899999999999
mp-1105808,Er7 Ir1 I12,20,Trigonal,148,753.02035906694,6.363868477367174,37.651017953347,4.04106944,-4.442755431500001,-1.4877245700000001,False,0.38530000000000003
mp-862995,Er16 Ga6 Co2,24,Hexagonal,186,573.7880260824413,9.296516752962347,23.90783442010172,3.50211993,-4.811963163333331,-0.415341891041663,True,0.010299999999999001
mp-1190234,Er16 In6 Co2,24,Hexagonal,186,634.7468968666734,9.11154049105873,26.447787369444725,4.42636963,-4.67579693375,-0.34640623124999803,True,0.0020999999999990002
mp-1225972,Er8 Mn3 Mo5 O28,44,Monoclinic,5,553.9732279939727,7.285650516835797,12.590300636226653,3.83851505,-8.825790371363636,-2.989450483949843,False,0.666
mp-13384,Er2 Ag2 P4 Se12,20,Trigonal,163,583.9667051475521,4.611299664482155,29.198335257377607,1.57360348,-4.7548681434999995,-0.833160903001487,False,1.7618
mp-2755672,Er8 Ag8 S16,32,Orthorhombic,19,706.3657310872175,6.38026234209565,22.073929096475545,4.56895733,-19.373920299375,-1.536092680364582,False,1.7885
mp-4044,Er4 Ag4 Se8,16,Orthorhombic,19,389.7629411683988,7.379786196461983,24.360183823024926,2.88274168,-5.033074440625,-1.432454579713541,True,1.2801
mp-12902,Er2 Ag2 Te4,8,Tetragonal,113,233.96168426141253,7.527976527102085,29.245210532676566,4.36853221,-4.532410681249999,-1.108093612499997,False,0.8936000000000001
mp-2053129,Er4 As4 S4,12,Orthorhombic,62,243.08780726381408,7.493515002156125,20.25731727198451,5.59144,-20.647369157500002,-1.7580474120486111,False,0.46720000000000006
mp-1213048,Er4 As4 Se4,12,Orthorhombic,62,261.55561181635284,8.155305993522916,21.79630098469607,4.36690315,-22.60557604,-1.624067244965274,False,0.48690000000000005
mp-1190816,Er4 B16 Mo4,24,Orthorhombic,55,251.67879948791372,8.087460274309526,10.486616645329738,6.48256778,-7.65972474375,-0.6379020765277761,False,0.5880999999999991
mp-1192093,Er4 B16 W4,24,Orthorhombic,55,250.54496314730824,10.454362345416463,10.439373464471176,6.25470356,-7.978958057500009,-0.605055370277785,False,0.5911000000000001
mp-546621,Er1 Bi2 Br1 O4,8,Tetragonal,123,141.16092680583967,8.576980871338387,17.645115850729958,3.71168487,-6.645790428750001,-2.423718180625001,False,1.357
mp-549709,Er1 Bi2 Cl1 O4,8,Tetragonal,123,131.9521389723271,8.616169133742371,16.494017371540888,3.75316474,-6.724106044999999,-2.475584263749999,False,1.3769
mp-551250,Er1 Bi2 I1 O4,8,Tetragonal,123,150.22841050683854,8.578807971338948,18.778551313354818,4.32241971,-6.540157055,-2.332201546875,False,1.375
mp-562779,Er4 Co4 O12,20,Orthorhombic,62,201.45109439388898,9.040484271457935,10.072554719694448,3.36181437,-7.9621309464999435,-2.653127237499942,False,1.4471
mp-985700,Er4 Cr4 B16,24,Orthorhombic,55,231.20375700482657,7.541227117485645,9.633489875201107,6.50491949,-13.790462590833334,-0.726430199722223,False,0.16109999999999902
mp-728095,Er8 Cr8 H8 O40,64,Monoclinic,14,781.8679979026957,5.101562185906772,12.21668746722962,2.6072162800000003,-7.68358256046875,-2.3891153425000002,False,2.456
mp-19063,Er4 Cr4 O12,20,Orthorhombic,62,214.92554267079566,8.25931696741174,10.746277133539783,4.85748923,-9.049514932000001,-3.236585073,False,0.2571
mp-19240,Er2 Cr2 O8,12,Tetragonal,141,153.5857961193164,6.124943659562459,12.798816343276366,1.84986842,-8.453124033333333,-2.784355649999998,False,0.300399999999999
mp-1105511,Er2 Cr2 Te2 O12,18,Trigonal,163,226.15623376626922,6.503223052541735,12.564235209237179,3.24918979,-7.776172398888889,-2.5481903762962963,False,2.6495
mp-1225628,Er2 Cu2 Pb2 S6,12,Orthorhombic,36,260.2578767330662,6.816777117470562,21.688156394422183,4.84902579,-5.484103148333333,-1.351661272916665,False,1.5553
mp-567983,Er4 Cu4 Pb4 Se12,24,Orthorhombic,62,583.4273134921116,7.683376366146034,24.309471395504648,4.46489413,-5.046268382916667,-1.235050552421874,False,1.133099999999998
mp-12454,Er4 Cu4 S8,16,Orthorhombic,62,321.6734233765556,6.090041066704614,20.104588961034725,4.25649822,-16.79848232875,-1.5879249959895851,False,1.629299999999999
mp-1213221,Er6 Ge6 Rh12,24,Hexagonal,194,405.77276306515205,10.943842486373835,16.907198461048,5.4335549,-6.850549922916666,-0.870709321666664,False,0.015699999999999003
mp-1206742,Er1 H1 Se1,3,Hexagonal,187,48.03316835320193,8.54680226728387,16.011056117733975,3.9509184,-18.871318506666665,-1.64061590704861,False,1.4817
mp-866003,Er2 I6,8,Hexagonal,194,417.23909072830384,4.361669912738242,52.15488634103798,0.1847694,-3.912359278749999,-1.627420114999998,False,2.0376
mp-19345,Er4 Mn8 O20,32,Orthorhombic,55,342.69483342028064,6.9219810694281865,10.70921354438377,3.03427846,-8.611152392187499,-2.657208089795258,False,1.0779
mp-1194158,Er4 Mo4 Br4 O16,28,Triclinic,2,500.154534263476,5.40638066058349,17.862661937981287,1.39229779,-7.856387224285714,-2.593221584999999,False,1.9042
mp-559004,Er2 Mo2 Cl2 O8,14,Monoclinic,12,245.1233115444508,4.913395013249574,17.508807967460772,0.58351703,-7.979091720714286,-2.685698043571428,False,2.7062
mp-19830,Er1 N1,2,Cubic,225,27.95322407670807,10.767944887452241,13.976612038354036,3.92020906,-23.626701835,-2.099608916041667,False,0.12429999999999901
mp-1206712,Er1 Ni1 Bi1,3,Cubic,216,65.3743965143201,11.047488684465687,21.791465504773367,6.05514116,-5.40735823,-0.661394963333332,False,0.169999999999999
mp-21272,Er1 Ni1 Sb1,3,Cubic,216,61.56775783454507,9.378123297796591,20.522585944848355,6.64537391,-5.793094280000001,-0.9674753699999991,False,0.27390000000000003
mp-1191596,Er8 P8 S8,24,Orthorhombic,62,463.4303923363738,6.601525270254202,19.309599680682243,5.49860787,-18.753476684583333,-1.765973164290675,False,0.23259999999999903
mp-5036,Er8 P8 S32,48,Tetragonal,142,1076.4294552929637,4.029276483264438,22.425613651936743,3.12338455,-13.697489028958332,-1.186237727718252,False,2.1659
mp-1225447,Er1 Pa1 O4,6,Tetragonal,123,75.70387092967823,10.14023079412251,12.617311821613038,5.32135424,-9.844890268333335,-4.194246933333335,False,2.4341
mp-18341,Er4 Pt4 F28,36,Monoclinic,14,489.5674831340008,6.720363344068253,13.599096753722243,-1.06852365,-14.738304102777777,-2.816598800925924,False,2.2785
mp-1213022,Er4 Rh4 O12,20,Orthorhombic,62,223.42346421208666,9.458659049049958,11.171173210604334,4.45490236,-7.951800668999999,-2.596618729999998,True,0.9642000000000001
mp-27616,Er2 S2 Cl2,6,Orthorhombic,59,163.85698696806912,4.758495657132029,27.30949782801152,0.74650049,-6.0725660333333344,-2.5543589741666652,True,2.9329
mp-10932,Er2 S2 F2,6,Tetragonal,129,93.68670858697239,7.739259604601134,15.614451431162065,4.26637536,-18.35225866,-3.323437927048608,True,1.324399999999999
mp-1213308,Er4 Sb4 O16,24,Triclinic,2,293.527712168419,7.988313622966674,12.230321340350791,3.6280940900000003,-7.627126643333335,-2.879032631666668,False,2.382399999999999
mp-11836,Er1 Sb1 Pd1,3,Cubic,216,69.41080490394998,9.460226096871981,23.136934967983326,5.99460815,-28.76543175666667,-1.234696921111113,False,0.20929999999999901
mp-28458,Er2 Se2 I2,6,Orthorhombic,59,223.2705634902673,5.55009212960903,37.21176058171122,0.867853299999999,-5.16504742666667,-1.969166459114586,True,2.309
mp-5640,Er1 Sn1 Au1,3,Cubic,216,73.22843623210494,10.951119814075925,24.40947874403498,5.58556717,-4.794692280000002,-0.8443013916666671,False,0.006099999999999
mp-1212634,Er4 Te4 As4,12,Orthorhombic,62,297.1027524111241,8.266973326737814,24.758562700927005,5.74381313,-25.99635249083333,-1.312955669444444,False,0.36190000000000005
mp-1105213,Er2 Tl2 P4 Se12,20,Monoclinic,4,537.0494259103197,5.610991305951909,26.852471295515983,2.97262629,-4.7713762685,-0.8968155841681551,False,1.4836
mp-1213014,Er2 Tl2 W4 O16,24,Monoclinic,15,316.2429403008877,9.108279796067926,13.176789179203654,5.24853909,-8.544450544999982,-2.5078555927777613,False,2.9076999999999993
mp-1195632,Er4 Tl8 P8 Se28,48,Monoclinic,15,1406.9506864254101,5.621213217521875,29.31147263386271,2.71448818,-4.567971300833332,-0.8502220976965531,False,1.0722
mp-4123,Er1 Tl1 S2,4,Trigonal,166,102.41473049192885,7.065555167859005,25.603682622982213,3.959914399999999,-5.538045454999992,-1.734067939583325,False,1.4109
mp-570117,Er1 Tl1 Se2,4,Trigonal,166,114.22245775165648,7.698651426853895,28.55561443791412,3.70014918,-5.089725729999991,-1.6069722595052,False,1.2151
mp-1007907,Er1 Tl1 Te2,4,Trigonal,166,137.68473795779894,7.559996432331061,34.421184489449736,4.53650345,-4.550207077499991,-1.243756399166658,False,0.8205999999999991
mp-19205,Er4 V4 O12,20,Orthorhombic,62,220.50361904722976,8.018613803040648,11.025180952361488,4.62011848,-9.009617456500001,-3.3105158775,False,1.5838
mp-18960,Er2 V2 O8,12,Tetragonal,141,156.068355947956,6.005073440083617,13.005696328996335,0.64265593,-8.786572225833334,-3.212660742500001,False,2.9661
mp-1225396,Er1 Zn1 Cu1 P2,5,Trigonal,156,88.45414957378047,6.723723031884604,17.690829914756094,5.75960205,-4.915886540000001,-0.764363311857142,False,0.10010000000000001
mp-30022,Eu2 Al4 Cl16,22,Monoclinic,13,639.8169407087177,2.541097733005481,29.082588214032622,2.06909319,-11.195894049090908,-1.9954767259090902,False,1.6997
mp-1103889,Eu2 Al4 S8,14,Orthorhombic,66,323.24968070087357,3.433449314104583,23.089262907205256,4.96528757,-13.673541198571428,-1.655673240892856,False,1.1797
mp-1103552,Eu2 Al4 Se8,14,Orthorhombic,66,371.3168374959107,4.666713317926713,26.522631249707906,4.01027324,-17.054269740714286,-1.4497954123214272,False,1.002199999999999
mp-2646920,Eu4 B8 H32,44,Orthorhombic,60,428.2098042936643,2.817647997450122,9.732041006674189,1.2615907,-5.089028444090909,-0.47009871984848406,True,1.572
mp-540879,Eu4 B8 O16,28,Orthorhombic,60,341.56146241249064,4.620156461410449,12.198623657588952,5.0099785,-9.27629108392857,-3.070756872976189,True,0.290299999999999
mp-1193960,Eu4 Dy8 S16,28,Orthorhombic,62,671.5755740097359,5.985912144144472,23.98484192891914,4.43441158,-21.66639240535714,-2.434323049107141,True,0.1116
mp-645690,Eu4 Dy8 Se16,28,Orthorhombic,62,763.6795464719025,6.8954682378948995,27.27426951685366,3.6062292300000003,-25.069488432142858,-2.2508127051785722,True,0.16570000000000001
mp-1193984,Eu4 Er8 Se16,28,Orthorhombic,62,750.4348686916603,7.101413223590796,26.80124531041644,3.6091021100000003,-25.614363161071427,-2.240364022202381,True,0.1678
mp-1225526,Eu4 Ga8 As8,20,Monoclinic,10,475.0405611261013,6.169731486720438,23.752028056305065,3.72263791,-5.7778321465000015,-0.640922341500002,False,0.023899999999999002
mp-1181942,Eu8 Ga16 S32,56,Orthorhombic,70,1294.8930490504672,4.305396067056109,23.123090161615487,4.68231538,-14.701946187678569,-1.338170338571428,False,0.2343
mp-1193885,Eu4 Ho8 Se16,28,Orthorhombic,62,765.3697453227081,6.922423076480214,27.33463376152529,3.867748299999999,-6.972624085357142,-2.191607405982142,True,0.11420000000000001
mp-645692,Eu4 Lu8 Se16,28,Orthorhombic,62,730.9041712302537,7.431266361267387,26.10372040108049,3.7263973,-26.786420218928573,-2.225436789583333,True,0.1428
mp-21386,Eu3 P6 Ir6,15,Trigonal,154,274.7676546630356,10.848177735611543,18.317843644202373,7.03132487,-33.33092766666667,-1.082179218857144,False,0.336099999999999
mp-2929310,Eu1 Re2 O8,11,Trigonal,164,238.53821980424317,4.5413736444074235,21.685292709476652,0.780971099999999,-9.32280328,-2.525709791818181,False,0.27640000000000003
mp-1193787,Eu4 Y8 Se16,28,Orthorhombic,62,767.4996905678773,5.5873382362777235,27.41070323456705,3.90520032,-21.740310127500003,-2.2554064762499992,True,0.12439999999999901
mp-1212596,Eu8 B8 O20,36,Monoclinic,14,483.9358352461793,5.56624732284896,13.442662090171646,4.858322699999999,-9.662052044444412,-3.142628444814783,False,0.0819
mp-558834,Eu8 B20 Br4 O36,68,Orthorhombic,34,874.7910363468974,4.418139138556761,12.864574063924962,4.96540547,-8.881024284411765,-2.99033144534314,True,0.799199999999999
mp-553918,Eu8 B20 Cl4 O36,68,Orthorhombic,34,861.58780549953,4.143162199789351,12.670408904404852,5.12919905,-8.929265617941176,-3.026125939754903,False,0.759
mp-1192731,Eu8 B4 I4 N8,24,Monoclinic,11,559.1432363918186,5.5791327142913,23.297634849659108,4.47893743,-9.0423112475,-1.466280629861112,False,0.189499999999999
mp-582618,Eu2 C1 N2 Cl2,7,Monoclinic,12,146.5895291607636,4.699435806154689,20.941361308680513,4.25687435,-8.95708898,-1.788727492500002,False,0.9358999999999991
mp-1079126,Eu2 Fe1 H6,9,Cubic,225,96.04771686958574,6.324559124226007,10.671968541065082,2.89776525,-6.114011753333323,-0.6232069008333241,False,0.07209999999999901
mp-1018691,Eu2 H3 Br1,6,Trigonal,164,101.71846114519178,6.315364930016376,16.953076857531965,4.16616252,-6.527949771666665,-1.128171491458333,False,0.09100000000000001
mp-1213558,Eu4 Hf4 Mo14 O56,78,Monoclinic,15,1390.4742219536708,4.252566409181069,17.826592589149627,-0.64211867,-9.003247751923077,-2.465989782692307,True,0.3594
mp-558258,Eu4 I4 O2,10,Orthorhombic,72,308.3122994144814,6.180172560792437,30.83122994144814,4.75060221,-8.109345201999997,-2.394903188999999,False,0.048
mp-982662,Eu4 Mg2 Si4 O14,24,Tetragonal,113,339.3390172325674,4.858216819715106,14.139125718023642,5.70996625,-8.982979062916666,-3.341890984583333,False,0.011800000000000001