material_id,composition,nsites,crystal_system,space_group,volume,density,density_atomic,efermi,energy_per_atom,formation_energy_per_atom,is_gap_direct,band_gap
mp-1213999,Ca4 Co4 Ge4 O16,28,Orthorhombic,62,372.9760985572464,4.196558777984593,13.320574948473086,2.38755704,-7.137319121071429,-2.343906481785715,True,2.0128
mp-1932798,Ca1 Cr2 F12,15,Triclinic,2,204.88574957694973,3.015364832878556,13.65904997179665,-2.43334944,-5.67117471999999,-2.719313165333323,False,1.4544000000000001
mp-1040889,Ca4 Cr8 P8 O36,56,Orthorhombic,62,687.4241369350874,3.38195362405984,12.27543101669799,2.63804037,-8.292206471964287,-2.815471406556121,True,2.1309
mp-557519,Ca1 Cr1 F6,8,Trigonal,148,113.02192670799636,3.027538056892251,14.127740838499545,-2.75614002,-6.18352747,-3.29080727,False,1.5339
mp-19215,Ca2 Cr2 O8,12,Tetragonal,141,164.55716430369858,3.14982524324953,13.713097025308215,-0.07153711,-7.67376587,-2.432017308333333,True,2.3714
mp-19134,Ca4 Cr4 P8 O28,44,Triclinic,2,556.6491892135087,3.174224150563634,12.651117936670653,4.97525801,-8.064720760227273,-2.871509720616883,False,0.10760000000000002
mp-1404968,Ca1 Cu2 F8,11,Tetragonal,97,143.96794240417654,3.681187857840044,13.087994764016049,-2.12903256,-7.147404967272727,-2.261940485454545,False,1.2139
mp-12266,Ca2 Cu2 F8,12,Tetragonal,140,149.72623306878353,3.984098938317803,12.477186089065293,0.80430605,-8.10809267,-3.043225753333333,True,0.7392000000000001
mp-14694,Ca4 Cu4 P8 O28,44,Monoclinic,14,515.8164444753778,3.574227925845981,11.723101010804042,2.76253285,-7.320276659318182,-2.631960237889609,False,0.6887999999999991
mp-1043513,Ca4 Fe4 Ge8 O24,40,Monoclinic,15,506.7211049854847,4.420047015409942,12.668027624637118,2.80648068,-7.283357312,-2.342413028999999,False,1.6032000000000002
mp-1040941,Ca4 Fe8 P8 O36,56,Orthorhombic,62,666.5572125640037,3.564535041998629,11.902807367214352,1.74261682,-7.888326355535715,-2.580595041556122,False,2.0735
mp-549711,Ca2 Fe2 Cl2 O4,10,Monoclinic,12,169.168876731912,3.207330368787457,16.9168876731912,1.99023481,-6.818034057,-2.374016877,False,0.6341
mp-542232,Ca4 Fe4 F20,28,Monoclinic,14,396.35994930879065,3.199332758230655,14.155712475313951,-2.34368277,-6.194709583571435,-3.33115487428572,True,2.8329999999999993
mp-17914,Ca2 Ga8 O14,24,Monoclinic,15,327.0945224031415,4.375710984157092,13.62893843346423,0.75191403,-6.568917088333333,-2.506107837916667,True,2.5387
mp-1018093,Ca1 Ga1 Ge1 H1,4,Trigonal,156,71.6754046645721,4.250051088263053,17.918851166143025,4.1139153,-3.7326023325,-0.46962978343750006,False,0.4359
mp-7801,Ca2 Ge2 N4,8,Tetragonal,122,105.62708412224428,4.424811865995604,13.203385515280536,4.50594036,-10.61271210375,-0.8207689481250011,True,2.662199999999999
mp-34932,Ca1 H1 N1,3,Tetragonal,107,35.338475617530605,2.588778361360527,11.779491872510201,2.829894099999999,-7.433647743333334,-0.8929288191666671,True,2.192999999999999
mp-1029359,Ca1 Hf1 N2,4,Trigonal,166,51.89060749641861,7.890793104034891,12.972651874104653,4.91110491,-19.487347285,-1.875544676875002,False,0.543299999999999
mp-7041,Ca1 Hg1 O2,4,Trigonal,166,69.84267344187123,6.482768359971848,17.460668360467807,0.77144662,-5.1458146275,-2.093016145625001,False,2.125
mp-1041241,Ca2 Ho2 Mo4 O12,20,Monoclinic,7,254.54684631756905,6.430677454704038,12.727342315878452,4.19949536,-8.571355522,-2.773120962499998,False,1.3182
mp-1041222,Ca2 Ho2 V4 O12,20,Monoclinic,7,228.17520832414,5.864009533963236,11.408760416206999,5.35394201,-8.567154429,-3.121268677499999,False,1.1093
mp-22766,Ca2 In4 O8,14,Cubic,227,201.09158067639785,5.511331174718168,14.363684334028418,3.5538453800000003,-6.29491207785714,-2.392656165476187,True,2.020799999999999
mp-5795,Ca1 Mg2 N2,5,Trigonal,164,65.62697637431359,2.952859396136397,13.125395274862717,3.84376126,-5.317654780000003,-0.929035700000002,True,1.9968999999999992
mp-1019579,Ca8 Mg24 Si8 N32,72,Tetragonal,88,891.0092473893886,2.938699474492667,12.375128435963731,4.50121286,-6.229972947361111,-1.154924176805555,False,2.4021
mp-24052,Ca4 Mg4 Ni4 H16,28,Cubic,198,303.65970962804926,2.780323614511511,10.844989629573188,3.04395775,-3.7852761517857143,-0.5000086760714281,False,1.872999999999999
mp-1043484,Ca2 Mn2 Ge4 O12,20,Monoclinic,15,258.8333774486437,4.314951558639161,12.941668872432185,4.24389341,-7.458031465500001,-2.447887774293105,False,1.7943000000000002
mp-18844,Ca4 Mn8 O16,28,Orthorhombic,57,305.8061848654581,4.647062841667492,10.921649459480646,3.26728442,-8.179540646071429,-2.4479014340517242,False,2.0103
mp-1047886,Ca2 Mn6 P6 O26,40,Monoclinic,11,498.7746171121461,3.367893894197609,12.469365427803652,2.05717571,-8.10819386725,-2.6051158973860833,False,0.33989999999999904
mp-558986,Ca4 Mn24 Si4 O48,80,Tetragonal,142,846.4677896748557,4.62798623318708,10.580847370935697,3.41020353,-8.47421290700003,-2.38528582087934,False,0.5927
mp-557426,Ca2 Mn2 F10,14,Monoclinic,15,202.5600091219735,3.11528232672447,14.468572080140964,-1.3688475900000001,-6.372525542857147,-3.410114536133009,False,2.5589
mp-1214074,Ca4 Mn4 Ge4 O16,28,Orthorhombic,62,389.462584815209,3.950776710685106,13.909378029114608,2.77934161,-7.651885446428571,-2.5686730111330043,True,1.754799999999999
mp-1213991,Ca4 Mn4 Si4 O16,28,Orthorhombic,62,370.58301062462516,3.353477420093181,13.235107522308041,5.64375931,-8.252435313928572,-3.054609996490149,True,2.5993999999999993
mp-1040876,Ca4 Mo8 P8 O36,56,Orthorhombic,62,758.2105250689214,3.8361391150822453,13.539473661945024,6.36232917,-8.29478982875,-2.647682957627552,True,2.7872999999999992
mp-1401355,Ca1 Mo1 F6,8,Trigonal,148,134.81363082816907,3.079427091387,16.851703853521133,-1.61467719,-9.725988745,-3.242683640000001,False,2.5031
mp-989635,Ca2 Mo2 N6,10,Monoclinic,12,140.0983293035419,4.220453189740689,14.00983293035419,4.15820118,-8.36548322900001,-0.792266584000009,False,0.872599999999999
mp-607467,Ca4 Mo4 O12,20,Monoclinic,14,251.53959017651147,4.859133129267733,12.576979508825573,4.56775482,-8.158404337499999,-2.619377736499999,True,1.105
mp-555424,Ca2 Nb4 P12 O42,60,Monoclinic,12,882.370781346059,2.814280600947948,14.706179689100983,0.57650124,-8.149206680166666,-2.862265606261902,False,2.3764
mp-29792,Ca4 Nb8 O16,28,Orthorhombic,57,358.3042428176106,5.373879393079243,12.79658010062895,5.15353506,-9.024095541428567,-3.024087829999995,False,1.277299999999999
mp-557786,Ca2 Nb4 P4 O22,32,Monoclinic,15,426.05671006477496,3.615531047459706,13.314272189524218,0.72972174,-8.5238450090625,-3.057174504955356,False,2.4743
mp-2713921,Ca2 Nb10 P18 O72,102,Trigonal,158,1557.4112707643537,2.8987299706880743,15.268737948670134,0.00130545,-8.37126214637255,-2.893262479936975,True,2.4189
mp-1323553,Ca1 Ni1 F6,8,Trigonal,148,101.483582573437,3.481344506209429,12.685447821679626,-3.28409265,-4.9869633562499995,-2.578357005,False,2.1462
mp-1195052,Ca2 Np2 H18 O18,40,Triclinic,2,408.98363142104813,3.492907593461085,10.224590785526203,1.37087396,-6.40427637025,-1.9022000425,False,1.4339
mp-1227243,Ca2 Np2 P4 O16,24,Triclinic,2,285.991617984977,5.42327892389177,11.916317416040707,5.14294143,-8.612562914166666,-3.165228359836309,False,0.480099999999999
mp-1195107,Ca4 Np4 H28 O32,68,Monoclinic,14,743.0647800694642,3.683963810510415,10.927423236315649,1.6488070700000002,-6.603330329705882,-1.997257819558823,False,1.5401
mp-634859,Ca1 O2,3,Tetragonal,139,36.12744563392267,3.312892458777454,12.042481877974224,2.8285686,-6.173734116666668,-2.206560153333333,False,2.7345
mp-1345,Ca6 P6,12,Hexagonal,189,290.25005887179367,2.438949924979277,24.187504905982806,4.23122084,-9.276643459166666,-1.2564584531547611,False,0.34430000000000005
mp-1214043,Ca4 P8 Pd4 O28,44,Orthorhombic,62,571.5441906885608,3.723983871931098,12.98964069746729,3.38019359,-7.369856330909091,-2.583296714935064,False,0.3569
mp-557352,Ca4 P8 Xe20 F88,120,Orthorhombic,33,2283.2797794280227,3.422357890810714,19.027331495233522,-2.94851418,-3.8409221288333333,-2.003516461142857,True,2.7611
mp-9122,Ca2 P6,8,Triclinic,2,162.34278971854437,2.7207923507511182,20.292848714818046,5.94467808,-9.2420413925,-0.7309107334821421,True,0.004900000000000001
mp-11007,Ca4 P4 Se12,20,Monoclinic,14,507.1679981909675,4.032846886805643,25.358399909548375,2.73053292,-12.846995039000001,-1.051984898032739,False,2.1335
mp-771691,Ca4 Pb4 I24,32,Orthorhombic,43,1482.5413777604374,4.51924994581401,46.32941805501367,1.70251876,-2.9286865312500012,-1.070896201250001,False,1.785299999999999
mp-7922,Ca1 Pd1 F6,8,Trigonal,148,111.9683330792633,3.863156524552981,13.996041634907913,-2.25078207,-8.58834432125,-2.493979944999999,True,2.1062
mp-1044742,Ca2 Pr2 Mo4 O12,20,Monoclinic,7,264.6889021152627,5.882859044329145,13.234445105763134,5.863083,-8.549349222,-2.731335463166666,False,1.2495
mp-8255,Ca1 Pt1 F6,8,Trigonal,148,115.96896756412698,4.999451529642187,14.496120945515873,-1.44655694,-12.19997075,-2.5396984625,True,2.643
mp-989606,Ca4 Re4 N12,20,Monoclinic,15,312.5301702485125,5.702247561747393,15.626508512425625,1.7459766700000001,-8.628822699999997,-0.7351132354999971,False,1.8813
mp-1672,Ca1 S1,2,Cubic,225,46.414057530527266,2.5810342007468723,23.207028765263633,2.6617132100000003,-9.97225439,-2.435607998906249,False,2.3819
mp-504882,Ca2 Sb20 S12 O20,54,Monoclinic,15,1140.4482069419237,4.688631775426656,21.119411239665254,4.30557613,-5.805716841481482,-1.4499620364814811,False,1.7817999999999992
mp-1415,Ca1 Se1,2,Cubic,225,52.40874882176445,3.771646029600366,26.204374410882224,2.43012507,-12.990884785,-2.315957819531251,False,2.0728
mp-2713880,Ca6 Sn6 S18 O72,102,Trigonal,161,1620.3241296758963,2.748415940235057,15.885530683097022,0.02945389,-6.7008714734313735,-2.124060738284314,True,1.7000000000000002
mp-1029633,Ca4 Sn4 N8,16,Orthorhombic,33,265.5959051242573,4.671623566642753,16.59974407026608,4.08031955,-6.285509950625,-0.612578144375,True,1.3787
mp-4438,Ca4 Sn4 O12,20,Orthorhombic,62,248.80571219239832,5.520396786842774,12.440285609619917,4.10175427,-6.866365996500008,-2.694555046500007,False,2.3301
mp-556697,Ca2 Ta4 Bi4 O18,28,Orthorhombic,36,387.0037755137715,8.27197112219368,13.821563411206125,3.23351002,-8.423518472500001,-2.848434713190477,False,2.9261
mp-989638,Ca2 Tc2 N6,10,Monoclinic,12,137.57271785455993,4.3476633381132395,13.757271785455993,4.84872139,-12.651171694999999,-0.57333014225,False,0.47400000000000003
mp-1519,Ca1 Te1,2,Cubic,225,65.28162287945732,4.265149322704297,32.64081143972866,3.67271973,-18.14527302,-1.917514015000001,False,1.5535
mp-15511,Ca2 Te6 O16,24,Monoclinic,15,321.1903955775795,5.6959764796080865,13.382933149065813,4.61248851,-6.148380454583333,-1.896779987916666,False,2.0176
mp-1366217,Ca20 Te20 O60,100,Tetragonal,76,1625.1279576798906,4.407514548542142,16.251279576798908,2.51649572,-6.409629035600001,-2.411071277933333,False,2.895
mp-12221,Ca4 Te4 O16,24,Orthorhombic,60,332.54728185655193,4.627388712128368,13.856136744022997,2.51427046,-6.426597879999999,-2.269806247777776,True,2.2712
mp-2713742,Ca6 Ti6 S18 O72,102,Trigonal,161,1560.7197143806463,2.401135333428538,15.301173670398493,-0.30143748,-7.191704546960785,-2.386310272892157,False,2.2441
mp-16831,Ca1 Ti4 P6 O24,35,Trigonal,148,467.67964497699535,2.845351799810924,13.362275570771295,0.74246373,-8.380253920000001,-3.099354685176871,False,2.7105
mp-17784,Ca4 Ti4 Ge4 O20,32,Monoclinic,14,402.69578864888086,3.9682144286747443,12.584243395277527,1.75576972,-7.9571832625,-3.049192665416666,False,2.9495999999999993
mp-1029572,Ca16 Ti16 N32,64,Orthorhombic,61,862.699030046986,3.5711820061268362,13.479672344484156,3.62381181,-8.180578562500001,-1.536166715833334,True,2.2431
mp-4019,Ca4 Ti4 O12,20,Orthorhombic,62,224.09973769300066,4.02925941391082,11.204986884650033,3.0981552900000002,-8.5050821395,-3.556087157166666,True,2.3053
mp-6109,Ca4 Ti4 Si4 O20,32,Monoclinic,14,381.10902065329077,3.416464100691664,11.909656895415337,2.5122582700000002,-8.484478519375001,-3.476201650416667,False,2.985499999999999
mp-556730,Ca2 U2 Mo8 O32,44,Monoclinic,13,628.9638270709102,4.84650421922453,14.294632433429776,0.74463425,-8.618194513863621,-2.443331495227258,True,2.0852
mp-9360,Ca4 U4 P8 O32,48,Orthorhombic,62,613.7248638194319,5.065557862707032,12.78593466290483,5.46331831,-8.540988092916667,-3.231684344523808,False,0.141299999999999
mp-554227,Ca2 U2 Se4 O16,24,Triclinic,2,385.2421647653273,4.862296154169345,16.05175686522197,1.332730489999999,-7.483567973333333,-2.494191232890623,False,1.9467999999999992
mp-1227453,Ca2 U4 B4 O20,30,Triclinic,1,466.2782326807526,4.9697544285518545,15.542607756025086,0.90178534,-9.223880468666668,-3.395426235888889,False,2.0258
mp-1227253,Ca1 U3 Ti8 O24,36,Triclinic,2,452.8729774044127,5.5773327194584965,12.579804927900353,5.58328516,-9.632238059166667,-3.58238166574074,True,0.059300000000000005
mp-2015886,Ca2 U2 I12,16,Monoclinic,15,701.0337064819847,4.924688652635496,43.814606655124045,1.95032062,-30.664682523125,-1.373128403124997,True,0.9085000000000001
mp-3960,Ca1 U1 O4,6,Trigonal,166,76.36816752081042,7.438674020301041,12.72802792013507,4.23805998,-9.210233924999999,-3.695424939999997,False,2.103899999999999
mp-1045800,Ca2 V2 P8 O24,36,Monoclinic,15,496.7799742987173,2.7202608108124213,13.799443730519926,2.95619353,-7.918643086388887,-2.8004801913095223,True,2.9611
mp-27624,Ca1 V2 O6,9,Monoclinic,12,126.80711745538089,3.116051896894496,14.089679717264543,-0.63153672,-8.23989794,-2.6997670455555562,False,2.8812
mp-21541,Ca4 V8 P8 O36,56,Orthorhombic,62,702.4435668079659,3.289697599022172,12.54363512157082,3.02737596,-8.296707128392857,-2.901277977270408,True,1.5018
mp-16967,Ca2 V8 Ag4 O24,38,Tetragonal,125,562.5869764179325,3.846383932449266,14.804920432050857,0.70517657,-7.646282397105264,-2.204038629912281,False,1.9174000000000002
mp-1213869,Ca4 V4 Si4 O20,32,Monoclinic,15,374.4531575347632,3.531727721724441,11.70166117296135,3.24160798,-8.2620127834375,-3.1051841578125,False,1.1317
mp-989616,Ca2 W2 N6,10,Monoclinic,12,145.95522033096265,6.051179304803491,14.595522033096264,3.95802654,-17.964336496,-0.8058684772500011,False,0.5612
mp-1029267,Ca1 Zr1 N2,4,Trigonal,166,53.33223142460089,4.960404591077643,13.333057856150223,4.71532549,-13.8075860325,-1.796189295625,False,0.39380000000000004
mp-1227163,Ca4 Zr4 Ti8 O28,44,Triclinic,2,523.9731452844247,4.297743529692703,11.908480574646017,2.43959714,-9.16555210181818,-3.6219146856060602,False,2.9332000000000003
mp-1025377,Cd1 Ag2 I4,7,Tetragonal,121,267.54172887677356,5.187306308344524,38.220246982396226,0.8864854,-2.4530859571428563,-0.6328093847619031,True,1.7741
mp-7128,Cd1 As2 O6,9,Trigonal,162,99.84185127009457,5.958314167508589,11.093539030010508,2.13534478,-6.139785953333328,-1.696672477222217,False,1.934899999999999
mp-29169,Cd2 Au4 F16,22,Tetragonal,124,338.5392843903722,6.458245754222658,15.388149290471462,-2.28454081,-14.834109401818182,-1.535642893636362,True,1.7789000000000001
mp-557715,Cd2 Au4 F24,30,Monoclinic,15,431.3555864780913,5.653689666329407,14.37851954926971,-3.22787316,-11.853864287333332,-1.2680480613333311,True,1.8309000000000002
mp-756301,Cd2 Co4 O8,14,Cubic,227,146.06798809844764,6.690790002378591,10.433427721317688,2.16246157,-6.321931073571427,-1.319261409285712,True,1.9265999999999992
mp-772099,Cd2 Cu4 O8,14,Tetragonal,88,149.99748174795735,6.719774187721026,10.71410583913981,2.87230555,-5.216558242857142,-1.080805735714285,False,0.32019999999999904
mp-21333,Cd2 Fe4 O8,14,Cubic,227,166.66773094950128,5.740751105296045,11.904837924964378,1.988618859999999,-7.001606847142857,-1.6170501857142852,False,1.8272
mp-3443,Cd2 Ga4 O8,14,Cubic,227,161.0288658479818,6.514222153939238,11.502061846284414,1.5750321,-5.860100102142857,-2.030379208571428,False,1.5793
mp-4452,Cd1 Ga2 S4,7,Tetragonal,82,159.94575929459765,3.9463323764415152,22.849394184942522,1.39469697,-11.558159992857142,-0.8252262901785701,False,2.1205
mp-3772,Cd1 Ga2 Se4,7,Tetragonal,82,182.5673813806625,5.163480131897585,26.08105448295179,1.1460399,-3.885331745714286,-0.8853534391964281,True,1.3487
mp-13949,Cd1 Ga2 Te4,7,Tetragonal,82,230.29006816915117,5.496361772578052,32.8985811670216,2.78075164,-21.13475266714286,-0.46911883428571505,True,1.0357
mp-2051619,Cd2 H4 O4,10,Monoclinic,8,99.7175920390008,4.876683381972821,9.971759203900081,-0.44641583,-4.846159043999999,-1.3169060284999992,False,1.7022
mp-559200,Cd2 In4 S8,14,Cubic,227,326.0902033892593,4.789859607424008,23.292157384947092,3.3240971,-14.701688223571429,-0.7870932551785711,False,1.050399999999999
mp-22304,Cd1 In2 Se4,7,Tetragonal,82,206.14609910517117,5.299382669137637,29.449442729310167,2.00179498,-3.757469954285714,-0.8343265846726181,True,0.956399999999999
mp-21374,Cd1 In2 Te4,7,Tetragonal,82,255.06717155303824,5.549603020597376,36.438167364719746,3.29019904,-24.355150145714283,-0.507855047142856,True,0.8481000000000001
mp-8212,Cd1 Pt3 O6,10,Orthorhombic,65,118.24397761033273,11.145619979204346,11.824397761033273,4.5886767200000005,-5.9621348959999985,-1.076017277999997,False,0.21370000000000003
mp-14100,Cd2 Rh4 O8,14,Cubic,227,171.08578141548205,7.419559621718397,12.220412958248717,3.51442609,-6.276599365714283,-1.207960801428568,False,0.8366999999999991
mp-8922,Cd1 Sb2 O6,9,Trigonal,162,115.68757080803138,6.486808372977494,12.85417453422571,3.01117367,-6.165387162222223,-1.8425228622222232,False,1.4136
mp-29052,Cd4 W24 Br56,84,Cubic,201,2576.4701925290647,6.017342440620225,30.67226419677458,1.32291425,-5.743286736547619,-0.903951352738094,False,2.0519
mp-1198923,Cd32 As16 H16 O80,144,Monoclinic,14,1976.274097440928,5.118705556397131,13.724125676673111,0.18925356000000002,-5.444320329652778,-1.585974287847221,False,1.5943
mp-541677,Cd8 As4 O16 F4,32,Monoclinic,15,479.7225171830051,5.299347357556956,14.99132866196891,0.02959769,-5.3799111953125,-1.842931281874999,False,1.705099999999999
mp-556653,Cd4 Bi2 As2 O12,20,Orthorhombic,36,297.86218526688884,6.742459420756851,14.893109263344442,2.16115107,-5.6656655485,-1.64887122325,False,2.0584
mp-13361,Cd2 Cu1 P2 O8,13,Triclinic,2,164.34859169790363,4.832737749500663,12.642199361377202,1.9670091900000002,-6.481855057692319,-2.140788739175835,False,0.698099999999999
mp-6356,Cd4 Ga2 Ag2 S8,16,Orthorhombic,31,387.6232596489914,4.546701253147711,24.226453728061962,1.57263982,-3.85411874625,-0.811057202395832,True,1.0437
mp-3917,Cd8 Ge4 O16,28,Orthorhombic,62,388.0561525497079,6.186916845450345,13.85914830534671,1.03900224,-5.523849196071429,-1.761721731071428,True,1.0923
mp-558011,Cd8 H8 S4 O24,44,Monoclinic,14,517.5872399815738,4.554394495267634,11.763346363217586,0.8489411800000001,-5.496780259090909,-1.629827635909091,False,2.9722
mp-24015,Cd8 H12 Cl4 O12,36,Orthorhombic,62,528.5052826794806,3.912323149584525,14.680702296652239,-0.82131133,-4.572461986666666,-1.372690263194443,True,2.0958
mp-1227201,Cd4 Hg26 As16 Cl24,70,Monoclinic,14,1958.9838169991585,6.539307384212235,27.985483099987977,0.46049289,-2.526919113857142,-0.6557976645000021,True,1.4033
mp-27686,Cd4 P4 O14,22,Triclinic,2,268.18973398781293,4.9380368820343925,12.190442453991496,1.36574295,-6.64840278181818,-2.340521466753244,False,2.713899999999999
mp-557910,Cd8 P4 O16 F4,32,Monoclinic,15,442.11198282989443,5.089904670359767,13.815999463434201,0.63490891,-5.94970461625,-2.319555828705356,False,2.3713
mp-1191189,Cd4 Sb4 O14,22,Cubic,227,273.4321458195503,7.048721984288322,12.428733900888652,3.69450589,-5.8584774045454555,-1.784500141363636,False,0.3778
mp-4530,Cd4 Si2 O8,14,Orthorhombic,70,176.43791618028882,5.965081773206399,12.60270829859206,1.67866465,-6.092007931428567,-2.215267584285709,False,1.462999999999999
mp-5966,Cd4 Sn2 O8,14,Orthorhombic,55,179.31692173747723,7.547740782507946,12.808351552676944,3.06121705,-5.381327748571427,-1.706836854999997,False,0.39979999999999905
mp-30940,Cd8 Te8 O28,44,Triclinic,2,595.8598742851009,6.599327979263909,13.542269870115929,3.1931293,-5.405449185454546,-1.5106892580303022,False,1.768799999999999
mp-13602,Cd12 As8 O32,52,Monoclinic,14,739.1491558086035,5.527166366474618,14.214406842473144,0.24721556,-5.640677626346153,-1.655757343653845,False,1.6354000000000002