material_id,composition,nsites,crystal_system,space_group,volume,density,density_atomic,efermi,energy_per_atom,formation_energy_per_atom,is_gap_direct,band_gap
mp-7471,Li12 Au4 O12,28,Tetragonal,136,293.2172005031508,6.02080605219084,10.47204287511253,0.77384911,-5.077512329642857,-1.6711503846428561,False,1.8503
mp-15999,Li6 Au2 S4,12,Orthorhombic,72,203.46958039987317,4.601557216007569,16.955798366656097,1.8851956300000001,-4.085752230000001,-1.2061906075,True,2.0985
mp-23222,Li3 Bi1,4,Cubic,225,74.88789412092665,5.095583576182748,18.72197353023166,2.90571406,-17.043427615,-0.6278293687499991,False,0.34289999999999904
mp-28510,Li24 Bi8 O24,56,Triclinic,2,682.38276178496,5.408113280673483,12.185406460445716,1.4742284300000001,-5.454331520357142,-1.959947816785713,False,2.4379
mp-557738,Li12 Bi4 O16,32,Tetragonal,136,321.12812542354715,6.076926929557232,10.035253919485848,2.06593126,-5.5632937390625,-1.8872128728125,False,1.2236
mp-569112,Li6 Ca2 Mn2 N6,16,Trigonal,148,177.93119963527633,2.946434102955425,11.12069997720477,3.82414688,-6.036720694375,-0.79806856849138,True,0.073199999999999
mp-780606,Li6 Cr4 P6 O24,40,Triclinic,1,460.93098185161796,2.952162093335476,11.523274546290448,1.25937579,-7.7002934015,-2.667552592696427,False,2.9720999999999993
mp-778433,Li12 Cr8 P12 S48,80,Monoclinic,14,1819.8406161567777,2.19909843618384,22.74800770195972,2.3504749,-5.453443111749999,-0.906463165446427,False,1.384599999999999
mp-770632,Li6 Cr2 O8,16,Orthorhombic,31,165.25786310812856,2.749514861687902,10.328616444258035,0.90060469,-6.576617355625,-2.180159844375,False,1.1496
mp-759234,Li12 Cu4 F24,40,Orthorhombic,33,384.2070022529609,3.429230210570923,9.605175056324022,-1.62491347,-6.283267,-2.606958706,False,1.0976
mp-19970,Li12 Cu4 O12,28,Tetragonal,136,265.3866298411937,3.31291605561265,9.478093922899776,0.62370327,-5.305655165714285,-1.78138969642857,False,1.178
mp-1177695,Li6 Cu2 S4,12,Orthorhombic,72,190.85870767024355,2.583988897976579,15.904892305853629,2.07066902,-4.227459449999999,-1.2103437158333321,False,2.0335
mp-756320,Li3 Fe4 Sb1 O8,16,Monoclinic,12,166.65545205689895,4.921752503406691,10.415965753556184,3.95275048,-7.057387510624999,-1.849916090624999,True,1.513
mp-3887,Li24 Ga8 N16,48,Cubic,206,438.10959718223364,3.594945496357451,9.127283274629868,2.13174526,-6.848640568333334,-0.70524114625,True,2.738699999999999
mp-1212476,Li12 Gd4 N24 O72,112,Monoclinic,14,1471.4787898760126,2.483125226446216,13.138203481035827,-0.66268288,-7.0945927751785725,-1.419740796607143,False,2.6228
mp-1212457,Li12 Gd12 Te8 O48,80,Cubic,230,981.0554838424216,6.362607824147301,12.26319354803027,2.97445161,-8.41980118375,-2.738937225416667,True,2.8187
mp-697047,Li6 H8 Rh2,16,Orthorhombic,63,145.21792694324432,2.921828005049107,9.07612043395277,1.02780984,-6.12639754875,-0.48679786437500006,False,0.39179999999999904
mp-733455,Li12 H24 Rh4,40,Orthorhombic,62,334.60885633059564,2.576122494135507,8.36522140826489,-0.97538284,-5.689596295749999,-0.486894067999999,False,2.6058
mp-1029562,Li24 In8 N16,48,Cubic,206,513.7247321624003,4.231908765257968,10.702598586716674,4.80926468,-8.484397328333333,-0.485028834583333,True,1.135999999999999
mp-1185315,Li12 La12 Mo8 O48,80,Cubic,230,1036.099427056756,5.265853947480374,12.951242838209449,6.18606516,-7.973626758499999,-2.89354564875,True,2.8495
mp-1018766,Li3 La1 As2,6,Trigonal,164,115.10373448224671,4.466022360263992,19.183955747041118,4.188534909999999,-12.250163341666665,-1.196836438333332,False,0.5023
mp-1018768,Li3 La1 Bi2,6,Trigonal,164,147.637297473291,6.497515313595994,24.6062162455485,4.68304549,-26.533851249999998,-0.8822767608333301,False,0.157899999999999
mp-8407,Li3 La1 P2,6,Trigonal,164,106.53924332283344,3.455080369296144,17.756540553805575,4.63645034,-10.314388124999999,-1.162879446825396,False,0.673999999999999
mp-8405,Li3 La1 Sb2,6,Trigonal,164,139.22691421574416,4.809485592304801,23.204485702624027,5.17286692,-15.761104311666665,-1.041515827499999,False,0.24960000000000002
mp-1211552,Li6 Mn4 Se8 O24,42,Triclinic,2,583.0812018192734,3.63691076065106,13.882885757601747,1.51618042,-6.376457234761905,-1.7378868940589092,False,0.7033
mp-2251,Li3 N1,4,Hexagonal,191,43.49737902678387,1.329645114763006,10.874344756695967,0.3339454,-4.5547189,-0.48250142218750003,False,0.9840000000000001
mp-8406,Li3 Nd1 As2,6,Trigonal,164,110.79985487799354,4.719477016179242,18.46664247966559,3.24673872,-12.167217913333333,-1.168352880416667,False,0.07590000000000001
mp-1102490,Li3 Ni2 Sb1 O6,12,Monoclinic,12,116.62788197014797,5.068220150310588,9.718990164178997,3.87788242,-6.173020300833333,-1.9143695316666671,False,2.8084
mp-1211465,Li12 Ni4 F24,40,Orthorhombic,33,385.6737829529617,3.332615771544866,9.641844573824041,-2.2590136100000002,-6.476595840250001,-2.68679543025,True,2.3599
mp-736,Li6 P2,8,Hexagonal,194,116.35462957137251,1.4784207064425061,14.544328696421564,1.72650997,-4.849909675,-0.809360786994047,False,0.6996
mp-28336,Li12 P28,40,Orthorhombic,19,782.9438513326726,2.016029104493912,19.573596283316814,3.49564494,-7.4435614385,-0.42609609608333104,False,1.831999999999999
mp-985583,Li12 P4 S16,32,Orthorhombic,62,644.980015636747,1.854266986621739,20.155625488648344,1.41355318,-4.6432519840625,-1.181291934642856,False,2.8091
mp-7955,Li6 Sb2,8,Hexagonal,194,156.9780330499643,3.016532149535449,19.622254131245537,2.34408978,-8.96872171,-0.7521129675,False,0.48330000000000006
mp-1194339,Li12 Sb4 S12,28,Orthorhombic,33,546.0608863438224,2.904439465711608,19.50217451227937,4.66958921,-4.352543959285714,-1.170994167499999,False,2.4016
mp-756316,Li6 Sb2 S8,16,Orthorhombic,31,349.6906883227319,2.572246830891136,21.855668020170743,1.94498638,-4.400263315,-1.099112301249999,False,2.2895
mp-542435,Li24 Sc8 N16,48,Cubic,206,497.4472018838932,2.504720864974737,10.363483372581108,2.71901124,-5.839127057708332,-1.049828191874998,False,2.401399999999999
mp-551675,Li3 U1 O4,8,Tetragonal,139,82.92667345484787,6.464798377322667,10.365834181855984,5.60618787,-7.549800438749999,-2.948547609999998,False,0.378
mp-6396,Li12 V8 P12 O48,80,Monoclinic,14,936.6771724375847,2.890511681297346,11.708464655469808,2.28927328,-7.703433305,-2.727606636196428,False,1.8718999999999992
mp-21633,Li18 V6 F36,60,Monoclinic,15,603.1532738433947,3.068407121584963,10.052554564056578,-0.220532899999999,-5.84102288049999,-3.21164398849999,False,2.4400999999999993
mp-760375,Li3 V1 S4,8,Cubic,215,208.85125029945607,1.590359148201836,26.10640628743201,-1.01416826,-5.280256963750001,-1.35974284625,False,1.9592
mp-1029592,Li24 Y8 N16,48,Cubic,206,582.7583499245023,3.139913993867486,12.140798956760465,1.5632718300000001,-5.742184642291666,-0.9234487106249991,False,2.079799999999999
mp-567219,Li4 Ca3 Si2 N6,15,Monoclinic,12,170.25545925849275,2.810967930414013,11.350363950566184,4.25002498,-6.098225537333334,-1.129372628222224,False,2.2904
mp-1222462,Li4 Co1 Te1 O6,12,Monoclinic,5,116.25537740326614,4.432092933008556,9.687948116938845,3.32636705,-5.953437338333334,-1.9867556625000011,False,2.3692
mp-755721,Li4 Cr3 Fe1 O8,16,Monoclinic,12,148.05588877195933,4.122778985031266,9.253493048247458,3.251877679999999,-7.5837520099999995,-2.293218064583333,False,2.3536
mp-1222529,Li16 Ge4 S16,36,Orthorhombic,19,668.1071761214367,2.273320920330939,18.55853267003991,3.4301613,-4.484881334166666,-1.283530490648147,False,2.520299999999999
mp-642996,Li8 H12 Os2,22,Trigonal,167,195.44495101038257,3.807004415738219,8.883861409562844,-0.053787299999999004,-8.060011967272727,-0.490672975378788,True,2.691
mp-642847,Li8 H12 Ru2,22,Trigonal,167,186.27493663438906,2.404791934265277,8.467042574290412,0.06934873,-5.5666194572727274,-0.5027980612878791,True,2.388
mp-30228,Li8 H2 N2,12,Tetragonal,88,113.93344890586192,1.246966604069204,9.494454075488493,0.13456772,-3.698390784166666,-0.470201509097221,False,1.9079000000000002
mp-1101935,Li4 Mg1 H3 N3,11,Orthorhombic,44,94.8599608217067,1.6999774840166242,8.623632801973336,1.1316559,-4.690996172727273,-0.648587624280303,False,2.9272
mp-691115,Li8 Mn10 O24,42,Monoclinic,15,397.4633364794207,4.131443210079115,9.463412773319542,1.86747551,-7.426357757619043,-2.053914901094687,False,1.0113
mp-768712,Li8 Mn2 Cr2 O12,24,Monoclinic,15,209.73904815865728,3.652894468503857,8.73912700661072,2.03574493,-6.921567192083334,-2.243357170522031,True,1.0548
mp-1192995,Li8 Mn2 Ge4 S14,28,Monoclinic,9,585.5697879043292,2.566011443617403,20.913206710868902,3.09121812,-5.043793273928571,-1.114344742411739,False,1.5209000000000001
mp-1192737,Li8 Mn2 Sn4 Se14,28,Monoclinic,9,734.2667463308899,3.9478522537922,26.223812368960353,2.58190278,-4.5404403589285725,-1.019852443762186,True,1.065
mp-19117,Li8 Mo2 O10,20,Triclinic,2,174.0732240356345,3.886335423261222,8.703661201781724,1.3870071400000001,-6.584061948,-2.261947287833334,False,2.8472
mp-29149,Li4 N1 Cl1,6,Trigonal,166,74.11045541373396,1.7302952734741202,12.35174256895566,1.9368365600000002,-5.156109395,-1.018106857986112,False,1.7617
mp-9159,Li4 Np1 O5,10,Tetragonal,87,96.87126560956175,5.909792811497805,9.687126560956175,4.48858114,-7.3143375840000004,-2.7820099667083342,False,0.24900000000000003
mp-22170,Li8 Pb2 O8,18,Orthorhombic,63,193.8256732273988,5.122514555962003,10.76809295707771,1.04895133,-5.3791634883333295,-1.919143204259254,True,1.4367
mp-1181012,Li16 Re24 S44,84,Orthorhombic,56,1593.6295787292136,6.242414836076053,18.971780699157303,3.85152201,-7.106192861071428,-1.018272291825396,True,1.732799999999999
mp-4426,Li8 Se2 O10,20,Monoclinic,15,190.70688849802826,3.251665605753137,9.535344424901414,1.10700767,-5.5380743495,-1.950933552567708,False,2.4442
mp-1195718,Li16 Sn4 S16,36,Orthorhombic,62,709.3419458485032,2.572562034958062,19.7039429402362,3.82901387,-4.406942159722223,-1.273753093981481,True,2.3564
mp-30129,Li16 Ta4 N12,32,Orthorhombic,73,332.0937256633453,5.014852324648111,10.377928926979541,1.59550377,-11.783405176875,-1.09279137940625,False,2.684
mp-4804,Li8 Te2 O10,20,Triclinic,2,180.3598335425996,4.333848923870652,9.01799167712998,2.43562062,-5.656125174000001,-2.104244935500001,False,2.7111
mp-766540,Li16 Ti4 S16,36,Orthorhombic,62,681.1415266227162,1.988244484266622,18.920597961742118,0.93943388,-5.111733531944444,-1.546775559351851,True,2.3658
mp-7714,Li4 U1 O5,10,Tetragonal,87,98.44954421773501,5.832405410848618,9.844954421773501,2.80570347,-7.260546774000001,-2.893856123833333,False,1.7311
mp-777961,Li16 V4 B8 O24,52,Orthorhombic,58,494.8557212043594,2.635139833193059,9.516456177006912,3.65320018,-7.2125326686538465,-2.6151367372435903,True,2.9536
mp-1194891,Li8 Zn2 H24 N12,46,Orthorhombic,20,439.87471403625165,1.429289371031032,9.562493783396775,1.4801319,-4.872369254565217,-0.5390171323188401,True,2.6176
mp-757242,Li10 Au2 O8,20,Orthorhombic,70,201.19735291641985,4.880483751867384,10.059867645820992,0.50252106,-5.066491792,-1.805457756666666,False,1.9587999999999992
mp-29365,Li5 Bi1 O5,11,Monoclinic,8,121.77903034390049,4.413627443517979,11.07082094035459,1.20367137,-5.419265454545455,-1.948860575606061,False,1.3597000000000001
mp-29025,Li5 Br2 N1,8,Orthorhombic,71,136.08693497942187,2.544367011117343,17.010866872427734,0.87977351,-3.80505973,-1.160461586458333,False,2.0781
mp-23361,Li5 Cr1 Cl8,14,Orthorhombic,65,262.6307957610719,2.341459211249514,18.75934255436228,0.85490488,-7.301780744285715,-1.8570389130952392,True,1.7483
mp-531553,Li80 Ge16 N48,144,Triclinic,1,1350.456235079563,2.938581226626753,9.378168299163631,4.21692089,-4.948498914930556,-0.594890534560185,False,0.0014000000000000002
mp-643656,Li10 H18 Pt4,32,Tetragonal,140,290.1543308204018,4.966885908800464,9.067322838137557,1.71476092,-9.61825026125,-0.49293916888020706,False,0.136
mp-1211142,Li15 I3 O18,36,Trigonal,151,316.3516938433656,4.056541683626441,8.7875470512046,4.81650942,-5.296128770833336,-1.899762689305558,False,2.590699999999999
mp-1202424,Li10 La10 Si8 N24,52,Tetragonal,117,686.9166202992427,4.881440065965761,13.209935005754668,5.97617479,-7.374302638076923,-1.374869756602565,False,2.5229
mp-1222696,Li5 Mn5 Se8 O24,42,Triclinic,1,598.0991489901379,3.678847009310837,14.240455928336617,2.33301806,-6.552139213571428,-1.740876196073138,False,0.8681999999999991
mp-530177,Li10 Mn14 O32,56,Orthorhombic,58,530.0250331855946,4.231115089781728,9.464732735457046,2.24965111,-7.5260563891071435,-2.067267194185139,False,0.871
mp-3838,Li10 Re2 N8,20,Orthorhombic,59,214.6694946407185,4.28442520188517,10.733474732035926,1.08375189,-10.903416738,-0.8175017920833321,True,2.8473
mp-5061,Li5 Re1 O6,12,Monoclinic,12,102.13379178967001,5.152445331878141,8.511149315805834,1.19238264,-6.614796960833334,-2.3080890799305562,False,2.158299999999999
mp-29364,Li5 Sb1 O5,11,Monoclinic,12,105.67097758222343,3.715820537960308,9.606452507474858,1.8182475200000001,-5.690335399090909,-2.198206253787879,False,2.914
mp-559814,Li20 Sb4 S12 I8,44,Orthorhombic,58,1084.0095687380115,3.103335930396204,24.63658110768208,2.51334704,-3.9195865956818183,-1.270793913333332,True,2.7011000000000003
mp-686208,Li80 Si16 N48,144,Triclinic,1,1271.3114833089276,2.190394384744106,8.828551967423108,3.69072922,-5.313381626180555,-0.8706298930324081,True,2.159999999999999
mp-685991,Li10 Si2 P6,18,Monoclinic,9,305.7924268160472,1.6911177721127921,16.98846815644707,2.20505528,-4.058822567777778,-0.5903389078439151,True,1.3160999999999992
mp-769637,Li10 Ti12 Fe2 O32,56,Monoclinic,4,600.7735932092196,3.503329790976219,10.728099878736064,1.51045367,-8.231014945535714,-3.06833766970238,False,2.7030000000000003
mp-686129,Li80 Ti16 N48,144,Triclinic,1,1399.517677654111,2.3652725820401272,9.718872761486882,2.42545318,-5.691114166319444,-0.973898656875,False,1.5392000000000001
mp-27483,Li40 Tl8 O32,80,Tetragonal,137,816.3699014924835,4.931940548670556,10.204623768656043,1.7555033,-5.035327619124999,-1.864534572124999,True,1.6838000000000002
mp-1222482,Li6 As1 S5 I1,13,Triclinic,1,276.79857924655875,2.422414202915209,21.29219840358144,0.74654104,-4.166239487692308,-1.217049473461538,True,1.5398
mp-18925,Li24 Co4 O16,44,Tetragonal,137,386.23062221360556,2.830290317086024,8.777968686672853,1.29765815,-5.4277486775,-1.938767046590909,False,1.9349
mp-1029498,Li12 Cr2 N8,22,Tetragonal,137,205.8451791991688,2.414737682679257,9.356599054507672,1.81322814,-5.7652148754545465,-0.8143334527272731,True,1.4398
mp-756490,Li12 Mn2 S8,22,Tetragonal,137,369.72475387777445,2.019677160909255,16.805670630807928,1.7893990400000002,-4.757734745000004,-1.3787355848119152,True,1.9467999999999992
mp-8804,Li12 Mo2 N8,22,Tetragonal,137,213.58799380942872,3.01048399265989,9.708545173155851,1.73190441,-5.918423979545454,-0.8591241350000001,False,2.6113
mp-1211124,Li6 Ni1 Cl8,15,Cubic,225,261.2538671253076,2.440485313615477,17.416924475020505,1.36770082,-6.852261230666667,-1.8174967759999991,False,1.3726
mp-1029826,Li12 Os2 N8,22,Tetragonal,137,213.25349486377024,4.483620276318826,9.69334067562592,3.75120203,-5.632015054090909,-0.538013635,False,0.08509999999999901
mp-7941,Li6 Te1 O6,13,Trigonal,148,123.50966762204364,3.566080095580585,9.500743663234125,0.94502576,-5.538599096153846,-2.132090702051282,True,2.798
mp-8609,Li6 U1 O6,13,Trigonal,166,147.16214972097183,4.238976446311725,11.320165363151679,0.71275654,-6.770566743846155,-2.73728111,True,2.1685
mp-29250,Li6 V1 Cl8,15,Cubic,225,266.68650312099356,2.342502847887874,17.779100208066236,3.18565354,-7.120857426666666,-1.9455690673333341,True,1.5371000000000001
mp-38487,Li7 Bi1 O6,14,Triclinic,1,133.35067398044131,4.402726172360108,9.525048141460093,0.978412,-5.333531286428572,-1.9806555430952382,False,1.9268
mp-1222572,Li7 Cu2 N3,12,Trigonal,166,128.14913298854796,2.820915381034729,10.67909441571233,2.30425911,-5.9162293925,-0.43399698357638805,False,0.320899999999999
mp-675941,Li14 I2 N4,20,Monoclinic,8,274.2572752209069,2.464312289299618,13.712863761045345,3.27788367,-3.817344232,-0.661041414833333,False,1.9100000000000001
mp-5515,Li56 Mn8 N32,96,Cubic,218,846.6144045283733,2.5035441906349343,8.818900047170555,3.03644298,-5.3357357975,-0.679270269272031,False,0.759799999999999
mp-1211446,Li28 P4 Se24,56,Orthorhombic,33,1144.1563337884986,3.212186008251302,20.431363103366046,1.6804279100000001,-9.088358380892858,-1.118473910108418,True,0.9336000000000001
mp-1029522,Li56 Sb8 N32,96,Cubic,218,980.837915019784,3.065970699528783,10.217061614789417,3.44182152,-4.7617421702083345,-0.524694479652778,True,2.245
mp-673833,Li14 V2 As8,24,Monoclinic,15,426.4214737459603,3.109186465659751,17.76756140608168,1.35414352,-8.26002031125,-0.791133263472222,False,0.8996000000000001
mp-1201314,Li16 Be12 P14 O58,100,Trigonal,159,1106.335120447771,2.372680930319642,11.06335120447771,0.74426243,-7.127516266,-2.745375387083333,True,0.1894
mp-560555,Li8 Bi2 Pd1 O10,21,Monoclinic,12,228.11160260225168,5.386124558640047,10.86245726677389,2.27409616,-5.544238512380953,-1.843717397460318,False,0.9392
mp-8610,Li8 Pt1 O6,15,Trigonal,148,125.27838741148403,4.594222522367486,8.351892494098935,1.77105021,-5.315978290000001,-1.913959471111112,True,2.1611000000000002
mp-973793,Li16 Se2 N4,22,Tetragonal,109,243.54533907657,2.215931736573749,11.070242685298636,1.39249325,-5.447051049090909,-0.750440787263257,False,1.7523
mp-1190809,Li16 Te2 N4,22,Tetragonal,109,267.24376256429514,2.623885698303365,12.147443752922506,2.16317643,-3.867219506363636,-0.677106386666666,True,2.171399999999999
mp-849522,Li16 V6 P16 O58,96,Monoclinic,9,1177.7104433476766,2.594702021624042,12.267817118204965,1.2861218,-7.5047829765625,-2.726913007996031,False,1.0229
mp-26035,Li18 Mn6 P16 O58,98,Monoclinic,15,1163.8728997755154,2.679569037812957,11.876254079341994,1.22978005,-7.354454606836734,-2.630352381855835,False,1.4499
mp-1223032,Li18 Nd4 P10 S40,72,Monoclinic,15,1583.7808063200805,2.4054346056634,21.996955643334452,2.05484699,-5.046743679861112,-1.253378134255952,False,2.6719
mp-1185329,Li1 Ac1 Rh2,4,Cubic,225,74.31260409603121,9.826400036686133,18.578151024007802,5.50814824,-30.17678579,-0.352625018541669,False,0.29550000000000004
mp-864755,Li1 Ac1 Te2,4,Cubic,225,124.46911172465487,6.5256169046388575,31.117277931163716,5.59612746,-4.49926146,-1.4200840447916652,True,0.5567000000000001
mp-27227,Li2 Ag6 O4,12,Orthorhombic,72,167.58077542268393,7.184823414960364,13.965064618556994,1.52379379,-4.193837251666667,-0.8048942663888881,True,0.727799999999999
mp-765559,Li2 Ag2 F8,12,Monoclinic,15,140.99335413533052,4.4943327522722285,11.74944617794421,-2.81107731,-7.918943890833333,-1.8778279977777772,False,1.3393
mp-772290,Li4 Ag4 O4,12,Tetragonal,139,157.26726779742017,5.524678938965225,13.105605649785014,1.346573,-4.487755839166666,-1.254481989166664,False,1.222799999999999
mp-996962,Li2 Ag2 O4,8,Monoclinic,14,89.54423795505451,5.444915828347883,11.193029744381814,0.67584501,-4.76615059375,-1.104204954999999,False,0.6381999999999991
mp-1188124,Li2 Al2 P4 S12,20,Monoclinic,15,440.01910939744346,2.175665033927013,22.000955469872174,2.32661532,-5.079137614,-0.9475772987619041,False,2.749
mp-5920,Li1 Al1 Ge1,3,Cubic,216,52.81719212819173,3.350258717879114,17.605730709397243,4.9768912,-3.717195643333334,-0.291353459444444,False,0.052699999999999005
mp-3161,Li1 Al1 Si1,3,Cubic,216,51.550854332397535,1.997382426964561,17.183618110799177,4.89920206,-3.88454041,-0.19126816777777703,False,0.112099999999999
mp-4586,Li2 Al2 Te4,8,Tetragonal,122,240.8510256428608,3.986690686480764,30.1063782053576,2.55454027,-3.9104522675,-0.925174646666666,True,2.4411
mp-7943,Li8 As8,16,Monoclinic,14,287.3892010245731,3.784026537081356,17.961825064035818,3.14337844,-9.1353277975,-0.588209097083334,False,0.3285
mp-1197471,Li2 As2 Xe6 F24,34,Monoclinic,4,721.7031628471966,3.238335817723515,21.22656361315284,-4.86793982,-3.4353149111764703,-1.690973945931372,False,2.9661
mp-1203059,Li4 As12 H8 O36,60,Monoclinic,14,732.802571341703,3.423637763074154,12.213376189028384,2.07214453,-6.141165092833333,-1.6584136003888892,True,2.8119
mp-555874,Li2 As2 S4,8,Monoclinic,9,158.8211673254257,3.052822489810487,19.852645915678213,2.81598696,-4.5692398225,-0.855298688958333,False,1.0664