material_id,composition,nsites,crystal_system,space_group,volume,density,density_atomic,efermi,energy_per_atom,formation_energy_per_atom,is_gap_direct,band_gap
mp-28099,S4 Br4,8,Orthorhombic,41,253.14320247425002,2.937924414810992,31.642900309281252,-0.95650558,-3.1987406025,-0.31108755124999904,False,2.2489
mp-28407,S8 Br16 O8,32,Orthorhombic,29,894.037532029428,3.088731546062564,27.938672875919625,-1.64331227,-3.9670695253124992,-0.8770161146874991,True,2.7573
mp-28096,S8 Cl8,16,Orthorhombic,43,465.5479909369948,1.926611715763964,29.096749433562174,-1.09798258,-3.466514059999999,-0.47306287624999904,False,2.8804
mp-1210452,S32 Cl128,160,Cubic,218,4855.3111600425145,1.902935844173941,30.345694750265714,-0.51326788,-2.944405329312499,-0.6378991758125,True,2.6189
mp-29264,S4 I4 Cl28,36,Monoclinic,14,1054.799509741041,2.563795867500411,29.299986381695582,0.07756662,-2.734901291666665,-0.6679933158333331,False,1.668499999999999
mp-23598,S8 I8 O24 F8,48,Orthorhombic,19,981.070934531954,3.059721608846206,20.43897780274904,0.19576107,-5.234018565,-1.497333969583333,False,1.9334
mp-27726,S2 O4,6,Orthorhombic,41,104.41966208548168,2.037555773121775,17.403277014246946,-2.00973933,-6.199653651666666,-1.521559792499999,False,2.8367999999999993
mp-28431,Sb2 I4 F12,18,Triclinic,2,367.1138441188268,4.428775729351865,20.395213562157046,0.20802525,-4.128257372222221,-2.054908403333332,False,0.5754
mp-540656,Sb1 S24 I3,28,Trigonal,160,849.1591335879498,2.487473887727597,30.32711191385535,0.8495689,-4.370798454999999,-0.512881715535712,False,2.5185
mp-15046,Sb8 P12 Se36,56,Monoclinic,14,1565.700172623276,4.442023860534176,27.958931653987072,2.69489495,-14.983955422142857,-0.182319531106504,False,1.5032
mp-532120,Cl35 F85 Sb24,144,Triclinic,1,3236.587178242869,2.964396312534528,22.476299848908813,-1.76733687,-4.456368206388888,-2.18919820892361,False,1.8188
mp-30213,Sb8 Br4 F60,72,Monoclinic,14,986.0420580433722,4.098291911929285,13.695028583935725,-2.9134643000000002,-4.316902904027778,-2.172306535138889,False,2.982
mp-559807,Sb8 Br4 F68,80,Monoclinic,14,1285.4537141519422,3.340041628699759,16.068171426899276,-3.29490216,-4.11540923675,-1.993887267249999,False,0.15230000000000002
mp-680240,Sb16 Cl40 F32,88,Monoclinic,15,2141.2785573199426,3.081972837903866,24.332710878635712,-1.13259045,-4.144185475681818,-1.857264932045454,False,2.3241
mp-559349,Sb8 Cl4 F68,80,Monoclinic,14,1256.1060427073594,3.183026187995135,15.701325533841992,-2.86184508,-4.02908587475,-1.896984091999999,False,0.327999999999999
mp-558692,Sb8 Cl4 O8 F44,64,Monoclinic,14,1100.1001203862381,3.139366333640938,17.18906438103497,-3.12112953,-4.72826742890625,-2.16233971546875,False,1.8316999999999992
mp-696088,Sb4 H40 Cl24 O18,86,Monoclinic,15,1285.947624229783,2.151581727568847,14.952879351509106,-1.11612669,-4.549091122325581,-1.2264052176744191,False,1.7417
mp-560928,Sb16 I8 Br16 F88,128,Orthorhombic,61,2750.3399221101354,3.5704538739512532,21.487030641485433,-0.02611024,-4.341480243984375,-2.209712475859374,True,1.708899999999999
mp-2136,Sb8 O12,20,Orthorhombic,56,331.9848734985325,5.832523086050206,16.599243674926626,4.28242699,-6.372114600999998,-1.751737501999998,True,2.2239
mp-1705,Sb4 O10,14,Monoclinic,15,160.9217283676086,6.67669459753784,11.4944091691149,5.09677719,-6.462006590714286,-1.74803409,False,0.5057
mp-20928,Sb4 Ru2,6,Orthorhombic,58,129.0524346923498,8.86779328609775,21.508739115391634,8.27765618,-25.90136487166667,-0.28897595333333403,False,0.0034999999999980004
mp-723419,Sb8 S76 F48,132,Monoclinic,14,3112.23618031106,2.306514000050649,23.57754682053833,2.16014837,-4.747840528333333,-1.418959838560605,False,1.9679000000000002
mp-2809,Sb8 S12,20,Orthorhombic,62,515.7079119701428,4.375422722175947,25.785395598507144,4.40757171,-15.3901916535,-0.28666591218749804,False,1.2866
mp-2160,Sb8 Se12,20,Orthorhombic,62,579.4444338187419,5.506812533083567,28.972221690937097,3.80523339,-19.1539570185,-0.28449458793750104,False,0.7564000000000001
mp-559894,Sb16 Te16 O72,104,Monoclinic,14,1477.0711823312718,5.780372481655164,14.202607522416075,3.5195188,-6.218069496538462,-1.67374154948718,True,2.6727
mp-3525,Sb2 Te2 Se1,5,Trigonal,166,159.64137547529742,6.008844543825181,31.928275095059483,5.4098941400000005,-4.061714129999999,-0.45360898113541404,True,0.130799999999999
mp-1201,Sb2 Te3,5,Trigonal,166,169.92445719025892,6.120536415946441,33.98489143805178,6.00628528,-3.920783878000003,-0.383199846000002,True,0.13140000000000002
mp-8612,Sb2 Te1 Se2,5,Trigonal,160,149.37496419374227,5.881116641839947,29.874992838748454,4.8377265099999995,-4.176821558000012,-0.498195292270844,False,0.48639999999999906
mp-1199772,Sb16 Xe8 Cl8 F88,120,Orthorhombic,33,2467.1858023344657,3.334280596483808,20.559881686120548,-3.0056797,-4.254202209,-2.174529170666666,True,2.1165
mp-1193829,Sb4 Xe2 F24,30,Monoclinic,4,517.4273069361384,3.8689984249034133,17.24757689787128,-3.88867323,-4.339640704333317,-2.255613694333317,False,2.7297000000000002
mp-1195711,Sb4 Xe2 F32,38,Triclinic,2,675.9521441312098,3.335008522191026,17.788214319242364,-3.97483764,-3.98764825868421,-1.9394474876315781,False,1.6479
mp-27318,Sb6 Br4 F32,42,Monoclinic,15,696.6168172650678,3.952504604392618,16.586114696787327,-1.5948817100000001,-4.528757511904762,-2.324827283809524,False,0.062699999999999
mp-1209457,Sb12 Cl44 F16,72,Monoclinic,14,2145.175410423036,2.573839086943073,29.794102922542166,0.05421484,-3.814456575972221,-1.571324130416666,True,1.6636000000000002
mp-1219529,Sb6 Cl18 O2 F8,34,Triclinic,2,971.1465674289722,2.654922683859657,28.56313433614624,-1.6149737100000001,-4.101393034411765,-1.6527307152941182,False,2.2549
mp-1209215,Sb24 I8 O32,64,Orthorhombic,33,1384.300278465236,5.33735097648844,21.629691851019313,3.36670769,-5.7989733592187385,-1.5861158148437382,True,2.5352
mp-27700,Sb8 Br4 O10,22,Monoclinic,14,462.420878973041,5.220155805003094,21.019130862410954,3.1123355,-5.6656935859090805,-1.617538762727261,False,2.376
mp-23419,Sb8 Cl4 O10,22,Monoclinic,14,435.43029779945584,4.865666349436686,19.79228626361163,3.3357742200000002,-5.777626486363638,-1.690999615,False,2.6466000000000003
mp-558592,Sb32 Br8 O44,84,Triclinic,2,1558.3899384973288,5.582965299198586,18.552261172587247,3.62144669,-6.006203937261905,-1.6855623160714281,False,2.770299999999999
mp-557022,Sb32 Cl8 O44,84,Triclinic,2,1520.9872626829347,5.332020965481229,18.10699122241589,3.5228755,-6.062741795238096,-1.721948148809524,False,2.883
mp-14673,F156 S16 Sb36,208,Monoclinic,14,3715.88102045561,3.512514950194067,17.86481259834428,,-4.96380465576923,-2.495445193173076,True,1.7301000000000002
mp-15380,F156 Se16 Sb36,208,Monoclinic,14,3827.6252072645852,3.7354815416115743,18.40204426569512,,-4.927556183701923,-2.508615804939903,True,1.9538000000000002
mp-27786,Sb2 As4 Cl26,32,Orthorhombic,36,978.7921133158352,2.485373344415774,30.58725354111985,-1.141327819999999,-9.121804059375,-0.677861348593749,False,1.1627
mp-14368,Sb4 As4 O20,28,Orthorhombic,19,399.3150251213944,4.602237284234654,14.261250897192657,1.18977116,-6.524449165714293,-1.733173623214292,False,1.7582
mp-569209,Sb2 As2 P2 Cl26,32,Orthorhombic,36,1066.4341435341428,2.144257700525446,33.32606698544196,-1.02892601,-3.5810498946875002,-1.190696538571428,False,2.1081
mp-1219478,Sb4 As4 Rh4,12,Monoclinic,14,236.84618634490747,8.40167352620913,19.737182195408955,7.31874174,-22.083174305,-0.5664825225000001,False,0.5387000000000001
mp-572526,Sb2 Br2 O4 F12,20,Monoclinic,13,331.7500037154141,3.480281812482345,16.587500185770704,-2.531740789999999,-4.56601073,-1.8515123265,False,1.9974
mp-2214131,Sb2 Br10 F12,24,Monoclinic,15,630.9272707580413,3.343939619758506,26.288636281585056,-1.66366863,-10.58173105625,-1.3519908693750011,False,1.7545000000000002
mp-541259,Sb2 Br10 F12,24,Monoclinic,15,665.0027401823623,3.172592487807427,27.708447507598432,-1.8102026800000002,-3.475839454166666,-1.492768773749999,False,1.7316
mp-27308,Sb4 Br4 F32,40,Orthorhombic,54,616.8035479903874,3.8083547215193523,15.420088699759685,-2.07727512,-4.19063161025,-2.082954932749999,False,2.7201
mp-560354,Sb2 Cl2 O4 F12,20,Orthorhombic,59,322.3553695449458,3.123752092432366,16.11776847724729,-2.51533811,-4.63198589,-1.89632786,False,1.9238
mp-27353,Sb12 Cl24 F36,72,Monoclinic,14,1774.5690905853562,2.803422154627933,24.646792924796614,-1.84599892,-4.305986410972222,-2.044712416805556,False,1.9134
mp-29391,Sb4 Cl12 F8,24,Tetragonal,82,604.9230933108859,2.921995854701883,25.205128887953578,-1.75114224,-4.01483876375,-1.764449698750001,False,1.8283
mp-570796,Sb8 Cl40,48,Monoclinic,14,1411.6646060338362,2.813941454748994,29.40967929237159,-1.2791529,-10.144463107916666,-0.7330447383333331,True,1.537399999999999
mp-29940,Sb4 Cl4 F40,48,Orthorhombic,57,702.7283547562715,3.281690465690861,14.640174057422323,-2.93551569,-3.885674632708333,-1.7926689835416671,False,2.3709
mp-1204286,Sb2 H72 S8 N22,104,Monoclinic,4,1082.7363222095546,1.350776574686309,10.410926175091872,1.6885653600000001,-4.967791126634615,-0.45568561701923005,False,2.222099999999999
mp-849325,Sb2 H8 N2 Cl12,24,Monoclinic,15,480.39357949702065,2.43703237692071,20.016399145709194,-0.24568858000000002,-4.089851998333334,-0.9949185366666671,True,1.9394
mp-1192718,Sb2 H10 Cl12 O4,28,Monoclinic,15,545.2381464941097,2.262929202966775,19.472790946218204,-0.89836965,-4.200163536428572,-1.193591233303571,True,1.781299999999999
mp-695843,Sb4 H28 Br24 O12,68,Monoclinic,14,1290.5381237923452,3.377532056059418,18.978501820475664,0.50435512,-4.146674544264705,-1.054866983308823,True,1.033
mp-560789,Sb4 I4 Cl8 F24,40,Orthorhombic,64,888.676259250883,3.240526735228945,22.216906481272076,-0.47883768,-4.097700629749999,-2.01437925925,False,1.9054000000000002
mp-23281,Sb2 I6,8,Trigonal,148,351.97797437316626,4.741073521538678,43.99724679664578,1.2762029,-2.8187120612500003,-0.643452289999999,False,2.1446
mp-23536,Sb1 I3 Cl8,12,Triclinic,2,405.86592842548947,3.216198670634946,33.82216070212412,-0.38278799,-2.784555281666666,-0.8271068245833321,False,1.2101
mp-27859,Sb3 I15 F18,36,Triclinic,2,987.4020025068221,4.390679565726668,27.42783340296728,0.58152126,-3.498127241111112,-1.562112360694446,False,0.9323
mp-23403,Sb16 I16 F80,112,Monoclinic,14,2369.345107405132,3.853588191673423,21.15486703040296,-0.02503627,-4.451314111071428,-2.276703292499999,False,0.5646
mp-30011,Sb4 Kr4 F28,36,Monoclinic,14,580.0518304294267,3.876689598943621,16.11255084526185,-3.31401937,-3.8296285450000003,-1.875156090740739,False,2.4093
mp-1197652,Sb8 N8 Cl64 O8,88,Monoclinic,14,2867.002253572602,2.017388774243103,32.57957106332503,-1.72928178,-3.761257736022727,-0.833659336931819,False,1.7767
mp-1819,Sb4 O8,12,Monoclinic,15,153.68018971557615,6.645553853260452,12.806682476298013,5.64122176,-6.513981062916656,-1.839006646249989,False,2.028799999999999
mp-554847,Sb4 P4 Cl24 O8,40,Monoclinic,14,1157.6624202900346,2.280395989973577,28.941560507250863,-1.26676594,-4.61512451725,-1.561959159714285,False,2.340799999999999
mp-541668,Sb8 P16 O56,80,Monoclinic,14,1059.654914190911,3.707070406032295,13.245686427386389,2.12935738,-7.346815667000024,-2.387248134428595,False,2.2876
mp-23574,Sb4 P4 Cl32 O4,44,Orthorhombic,62,1387.8117224747918,2.165010505078649,31.541175510790723,-1.12315833,-4.038418061136364,-1.3765291365584411,False,1.8687
mp-9750,Sb2 P2 O10,14,Monoclinic,15,173.36515074380551,4.458318418004147,12.383225053128966,2.18827689,-7.154836619999999,-2.257082364234693,True,2.5585
mp-572597,Sb12 P12 S48,72,Triclinic,2,2100.7869258180144,2.665293353861949,29.177596191916866,1.8213948,-4.946934647361111,-0.597282474801585,False,2.196
mp-1103317,Sb4 Rh4 S4,12,Cubic,198,223.74553353107422,7.621354815175237,18.645461127589517,7.31296796,-19.962530258333334,-0.6700157776041651,False,0.871799999999999
mp-1102366,Sb4 Rh4 Se4,12,Cubic,198,245.4847639307491,8.215287927330385,20.45706366089576,6.85145157,-5.770320454166668,-0.7739135916145831,False,0.3723
mp-1103434,Sb4 Ru4 S4,12,Monoclinic,14,225.43361198182876,7.5102040314223295,18.786134331819063,7.74891812,-6.530900193333333,-0.683645744166666,False,0.9252
mp-1102395,Sb4 Ru4 Se4,12,Monoclinic,14,244.07644139394293,8.212739944046893,20.339703449495243,7.01320957,-6.257886188333334,-0.6247811024479171,False,0.7549
mp-555288,Sb4 S4 Br12 F24,44,Monoclinic,14,923.3665107884696,3.650854117430045,20.985602517919762,-1.72261683,-4.106007545681819,-1.8640698490909091,False,2.532
mp-28064,Sb2 S16 Cl6,24,Triclinic,2,694.5725615068525,2.317287026000717,28.940523396118852,-0.13605835,-4.342888689583334,-0.7777631745833331,False,2.8648
mp-22971,Sb4 S4 Br4,12,Orthorhombic,62,338.10093212572406,4.591719201212127,28.175077677143673,2.46687697,-4.089356465833333,-0.787920684999999,False,1.7767
mp-557809,Sb2 S2 Cl18,22,Monoclinic,12,670.7084406869105,2.341620286958164,30.48674730395048,-0.85415725,-3.232821945000005,-0.968799580681823,True,1.7743
mp-23041,Sb4 S4 I4,12,Orthorhombic,62,381.2837437757244,4.890449799560453,31.7736453146437,3.30733908,-3.869324820833329,-0.6055336799999951,False,1.6276000000000002
mp-561328,Sb4 Se4 Br12 F24,44,Orthorhombic,19,1065.9124255931208,3.454843247439195,24.225282399843653,-0.86230447,-4.102546201590909,-1.919012876803977,False,2.6001000000000003
mp-558026,Sb4 Se4 I12 F24,44,Monoclinic,14,1209.8389614847263,3.817957506721423,27.496340033743778,-0.11177493000000001,-3.975579618636363,-1.8228464538494311,False,1.4501
mp-1205478,Sb16 Se80 F96,192,Monoclinic,14,4432.140874123725,3.779856766397097,23.084067052727733,0.23673457,-4.347268876875,-1.589629470351562,True,1.468
mp-559000,Sb2 Se12 I2 F12,28,Monoclinic,13,719.300482429558,3.8618063892054373,25.689302943912786,0.24304342,-4.127042741785714,-1.404785815290178,True,1.5285000000000002
mp-1209072,Sb4 Se4 Br4,12,Orthorhombic,62,367.6208373305021,5.070301437854808,30.635069777541844,3.64351066,-3.863614609166667,-0.7763281916145841,False,1.437799999999999
mp-572726,Sb8 Se8 Cl56 O8,80,Monoclinic,14,2575.7935384084417,2.397610396567087,32.197419230105524,-1.2894831,-3.665141731125,-1.113874398859375,True,1.9455
mp-28985,Sb4 Se4 Cl36,44,Monoclinic,11,1287.1619025524585,2.682314395694453,29.253679603464967,-1.17425488,-9.252507754090908,-0.580705386960227,False,2.0148
mp-22996,Sb4 Se4 I4,12,Orthorhombic,62,403.92772149890897,5.3874314898744995,33.66064345824241,3.03627075,-3.651522513333333,-0.60188073578125,False,1.3811
mp-554942,Sb4 Te4 I12 F24,44,Monoclinic,14,1256.725659311993,3.932591165861934,28.561946802545297,0.04717362,-4.012914414318182,-1.892236302651515,False,1.9198
mp-1219458,Sb4 Te4 Rh4,12,Cubic,198,267.9220745965157,8.73314564238582,22.326839549709643,7.65538785,-5.5830248708333325,-0.7041532030555531,False,0.552099999999999
mp-1102857,Sb4 Te4 Ru4,12,Monoclinic,14,267.42505422475244,8.70378741132592,22.285421185396036,8.19379594,-6.042988043333334,-0.527418152222221,False,0.6273999999999991
mp-29904,Sb2 Xe4 F18,24,Monoclinic,9,447.0120372463886,4.125839072350214,18.62550155193286,-4.13772798,-3.50688542375,-1.7213836775,True,2.024799999999999
mp-1195229,Sb4 Xe4 F44,52,Orthorhombic,62,876.2397340960795,3.5023652110211483,16.8507641172323,-3.88016554,-3.577577326153846,-1.637765669615384,False,1.7571999999999992
mp-1199352,Sb4 Xe4 F28,36,Monoclinic,14,633.9947757590364,4.044434130670497,17.610965993306568,-4.09825735,-3.980496338055556,-2.029147223055556,True,2.7566
mp-4798,Sc2 Al6 C6,14,Hexagonal,194,162.05768011564902,3.318515412872819,11.575548579689215,7.46180409,-6.811129310714286,-0.34610172892857105,False,0.0223
mp-1219646,Sc19 Ru4 Br28,51,Trigonal,160,1417.890343243704,4.093995460608273,27.801771436151057,3.45623835,-5.699323834705883,-1.714048812450979,True,0.021199999999999
mp-2752593,Sc19 Ru4 Br28,51,Monoclinic,8,1374.0510007840298,4.2246151165916,26.94217648596137,3.79058824,-15.130220365882353,-1.610258909509803,False,0.126199999999999
mp-28479,Sc2 C1 Cl2,5,Trigonal,164,103.44774306431249,2.774236608974617,20.6895486128625,2.33108536,-6.909065440000001,-1.7909275795,False,0.8824000000000001
mp-504934,Sc16 C8 I24,48,Triclinic,2,1416.2909111939045,4.526955963737055,29.50606064987301,3.81593549,-5.652939526458333,-1.241999268541665,False,0.5707
mp-10953,Sc4 Cd2 S8,14,Cubic,227,314.0606907829909,3.495793711911953,22.432906484499348,2.60199755,-12.513851411428572,-1.793571593035713,True,0.9581000000000001
mp-401,Sc8 S12,20,Orthorhombic,70,428.62771743663023,2.883972633977312,21.431385871831512,3.40977017,-11.551451251,-2.171056859687499,False,1.034999999999999
mp-7288,Sc4 S2 O4,10,Hexagonal,194,136.0815087560316,3.757785187618736,13.608150875603162,4.72440988,-8.748418971000001,-3.4085750135,False,2.0102
mp-1205354,Sc8 Se12,20,Orthorhombic,70,487.1980463863951,4.455277227996905,24.359902319319755,3.09486771,-15.109551364500001,-1.9632202839375021,False,0.625799999999999
mp-685069,Sc8 Te12,20,Triclinic,2,610.6110570880912,5.14210440105083,30.53055285440456,5.15640091,-5.899462137,-1.480490958999999,False,0.0033000000000000004
mp-557773,Sc6 Te3 O18,27,Trigonal,150,320.68155331361345,4.870183347995062,11.877094567170868,3.37959671,-7.98085356962963,-2.925741332592594,False,2.8970000000000002
mp-1220626,Sc36 In5 Co13,54,Monoclinic,12,1088.8053890710098,4.512218620060898,20.163062760574256,4.69525729,-6.512121737777778,-0.31769259228395,False,0.011899999999999002
mp-15661,Sc8 C6,14,Cubic,220,187.74561495263885,3.818325156564481,13.410401068045632,5.66266003,-8.0583901,-0.48469397178571305,True,0.32870000000000005
mp-1204900,Sc32 Fe8 Br40,80,Tetragonal,134,2024.5029035050338,4.167958713573514,25.306286293812924,3.68811086,-5.7475536366250015,-1.549090606125,False,0.47929999999999906
mp-1203959,Sc32 Fe8 Cl40,80,Tetragonal,134,1786.6563353152376,3.070282475098019,22.33320419144047,4.83295023,-6.1533139635,-1.849052800499999,True,0.5076
mp-1203372,Sc20 Co24 Sn72,116,Tetragonal,142,2446.4390050438283,7.371738488291912,21.089991422791623,8.25984336,-5.366894237586207,-0.310510126034482,True,0.007099999999999
mp-30863,Sc114 Rh26,140,Cubic,200,3012.7433071668534,4.299424758235072,21.51959505119181,4.37065847,-6.944455616,-0.420359311785713,False,0.0038000000000000004
mp-1210377,Sc114 Ru26,140,Cubic,200,2994.357852324877,4.299358291183983,21.388270373749123,4.46156413,-7.165305371785714,-0.286477200285713,True,0.020799999999999003
mp-541102,Sc12 C4 I22,38,Triclinic,2,1240.486618462942,4.523745523813372,32.64438469639321,3.2922083,-5.204011285,-1.350522633421052,False,0.37409999999999904
mp-1189869,Sc7 Co1 Br12,20,Trigonal,148,540.2150788206562,4.095818238604394,27.01075394103281,3.45318996,-5.367541645,-1.812338701249999,False,0.216699999999999
mp-1189852,Sc7 Co1 Cl12,20,Trigonal,148,467.93838035115135,2.835568450302797,23.39691901755757,3.99014961,-10.332176561,-1.989531091749999,False,0.18800000000000003
mp-541175,Sc7 Co1 I12,20,Trigonal,148,677.2330348698544,4.650062843155127,33.861651743492715,4.21586461,-4.844699334500007,-1.357256742750006,False,0.2411
mp-1190159,Sc7 Ni1 Br12,20,Trigonal,148,534.6556068564424,4.13766274077674,26.73278034282212,3.7578633,-5.2958567985,-1.80831785675,False,0.148399999999999
mp-8616,Sc2 Ag2 P4 S12,20,Trigonal,163,488.798052527511,2.766409561178501,24.43990262637555,2.1711784,-5.437090917,-0.9534397930952361,False,2.032499999999999
mp-13383,Sc2 Ag2 P4 Se12,20,Trigonal,163,561.0232200306174,4.075887198057913,28.05116100153087,1.80491771,-4.903703720499999,-0.805521450501487,False,1.6441
mp-11022,Sc2 Ag2 O4,8,Hexagonal,194,110.83397731096576,5.538115174152629,13.85424716387072,2.05572858,-7.391981858749986,-2.624149660416652,False,2.1264
mp-1094066,Sc1 Ag1 S2,4,Trigonal,160,83.6456551276697,4.306987351412815,20.911413781917425,3.2848562,-13.612637945,-1.406547278906249,False,1.2377999999999991
mp-1080747,Sc2 Al2 C2 O2,8,Hexagonal,186,92.53008536513671,3.587304858249117,11.56626067064209,6.03704088,-7.947113042500001,-1.8834451843750002,False,1.216699999999999
mp-1186984,Sc2 Br6,8,Hexagonal,194,300.2699630449898,3.148514650548815,37.53374538062373,-1.7035941700000001,-4.8795625575,-2.068735379999999,False,2.2256