material_id,composition,nsites,crystal_system,space_group,volume,density,density_atomic,efermi,energy_per_atom,formation_energy_per_atom,is_gap_direct,band_gap
mp-667326,K80 In16 O64,160,Triclinic,2,3206.978737546148,3.100994990350771,20.043617109663423,0.87020776,-4.38325603675,-1.562469399041666,False,2.2357
mp-569806,K10 Na2 Ti12 Se54,78,Trigonal,159,2260.4206000082127,3.875246288956493,28.979751282156574,1.59140335,-5.004214068333334,-1.189826083997707,True,0.8140000000000001
mp-1202095,K20 Nb12 O12 F56,100,Orthorhombic,31,1905.819391573332,2.746985271665322,19.05819391573332,1.20302319,-6.3772922347,-3.27334903475,True,0.00019999999999900002
mp-14624,K10 P4 Au2,16,Hexagonal,194,518.465448319326,2.910736835806664,32.404090519957876,1.46096326,-12.82640622625,-0.491352169337798,False,0.48150000000000004
mp-16989,K20 Sn4 As12,36,Monoclinic,14,1175.5246656817694,3.045362204158589,32.65346293560471,1.43506582,-3.051598013888889,-0.420843784305555,False,0.5222
mp-1211936,K20 Ta4 Tl8 As16,48,Orthorhombic,62,1595.4078933733476,4.516728762667779,33.23766444527808,1.71661662,-3.849787464375,-0.43751992106250004,False,1.5206
mp-644,K10 Te6,16,Tetragonal,87,609.8372538320665,3.149284900515929,38.114828364504156,1.1192707,-14.46687823,-1.174004153593751,False,0.171599999999999
mp-628680,K20 Th4 P12 S48,84,Monoclinic,14,2317.561644028923,2.59440121119921,27.590019571772896,1.82043431,-5.058255399166667,-1.297424815841834,True,1.9711999999999992
mp-555531,K20 Tl12 O4,36,Orthorhombic,63,1210.8259371788424,4.52368328845939,33.6340538105234,2.20691376,-2.4513212177777772,-0.482518332361113,False,0.13490000000000002
mp-14439,K40 Tl8 O32,80,Orthorhombic,61,1759.8501982916587,3.50156277103692,21.998127478645735,0.65245986,-4.175196127249999,-1.393179652208333,True,1.7631000000000001
mp-1224616,K20 U4 P12 S48,84,Monoclinic,14,2393.1534707714336,2.529080133007522,28.489922271088496,2.5880378200000003,-5.142645214642857,-1.197169309413263,True,0.31980000000000003
mp-557888,K10 U4 O8 F18,40,Monoclinic,15,717.5793706567508,4.19558525226037,17.93948426641877,-0.936964399999999,-6.70700588425,-3.444196682812499,False,2.6418
mp-769176,K40 Y8 O32,80,Orthorhombic,61,1749.7440789279674,2.6450653306309952,21.87180098659959,-0.048463280000000004,-5.167687923499999,-1.971909510124998,True,2.1088
mp-17161,K12 Cd2 O8,22,Hexagonal,186,431.4282342330357,3.163811940696736,19.610374283319803,0.43150575,-3.840527868636362,-1.336884909863634,False,1.5819
mp-17698,K12 Cd2 Te8,22,Hexagonal,186,895.7007698781348,3.179069555400297,40.71367135809704,0.68702733,-2.95585891590909,-1.108454179560604,True,1.6614
mp-510366,K12 Co4 O10,26,Tetragonal,136,530.5002909531748,2.707276239869873,20.40385734435288,1.5084916,-4.9286674430769235,-1.405986150653846,False,0.6965999999999991
mp-19141,K12 Co4 O14,30,Monoclinic,14,544.3166321035511,2.8337942604274162,18.143887736785036,0.48277762,-5.241021294000002,-1.528302706566668,True,0.8768
mp-560675,K6 Cu1 Si2 O8,17,Triclinic,2,301.242140338401,2.658596542965873,17.720125902258882,1.67083037,-5.9182992752941175,-2.311137563147058,False,0.5214999999999991
mp-5114,K12 Hg2 S8,22,Hexagonal,186,669.5499265227218,2.7947543940042223,30.434087569214626,0.24865348,-3.287384204090908,-1.137263418272726,True,1.7161
mp-1191206,K12 Hg2 Se8,22,Hexagonal,186,746.6187383852689,3.3406547507426563,33.93721538114858,0.14428299,-3.079202859545453,-1.162699560943181,True,1.384599999999999
mp-1226185,K24 In4 As12,40,Triclinic,2,1401.0797578126483,2.722003591743527,35.02699394531621,0.94641074,-2.753514276999999,-0.39773830926666504,False,0.4983
mp-1224505,K12 In2 P6,20,Triclinic,1,655.7894762340537,2.240062563414249,32.789473811702685,1.23096394,-2.8948517055,-0.315470439909522,False,0.748699999999999
mp-568916,K12 In2 Te8 Cl2,24,Hexagonal,186,930.9477065919965,3.193768076700582,38.78948777466652,1.08361718,-3.292489950833333,-1.29506007973611,True,1.9503
mp-12171,K12 Mg2 O8,22,Hexagonal,186,407.07308147293975,2.634295751358229,18.503321885133627,0.89918232,-4.136565298636364,-1.5719714466818182,True,1.6783000000000001
mp-18244,K12 Mn2 S8,22,Hexagonal,186,647.706949946721,2.142181856255185,29.441224997578228,1.22392296,-8.853105556818182,-1.313749682112068,False,1.2969
mp-18481,K12 Mn2 Se8,22,Hexagonal,186,725.04896057433,2.772880207950865,32.956770935196815,0.81898883,-3.925495515909091,-1.20423373961873,False,1.232
mp-18246,K12 Mn2 Te8,22,Hexagonal,186,878.7370226780262,3.023228571923615,39.94259193991028,1.18358866,-15.046615994999998,-1.186450946543885,True,1.4227
mp-1198979,K6 Na14 Mg1 Tl18,39,Cubic,200,1191.499987704224,5.9364808381253695,30.55128173600574,3.10853957,-1.907126129743585,-0.11509337712334101,False,0.025300000000000003
mp-1211804,K6 Na14 Tl18 Cd1,39,Cubic,200,1279.4573370352796,5.642720621981573,32.80659838551999,2.96433496,-1.880451412307692,-0.10560993725155,False,0.001999999999999
mp-541707,K12 Na6 Al2 Sb8,28,Hexagonal,194,971.9365225817037,2.7936487043485423,34.71201866363227,1.86902937,-2.702773536785714,-0.48313343233128003,False,0.7395
mp-6112,K12 Na6 Ga2 Sb8,28,Hexagonal,194,972.5471598518964,2.937849245573924,34.73382713756773,1.71734185,-2.650582231428571,-0.48219068465270803,False,0.7099000000000001
mp-560348,K24 Nb16 S100,140,Monoclinic,14,3898.002338085023,2.398945560451486,27.84287384346445,2.38672459,-5.4092185915,-1.104863514814284,True,1.5418
mp-561202,K24 Nb4 As12 O4,44,Cubic,198,1392.7394160474262,2.7101080076241013,31.653168546532413,1.587985929999999,-4.093342932045454,-0.8344472975909081,False,1.0969
mp-567820,K24 Nb4 Tl4 As16,48,Orthorhombic,62,1581.3514523869803,3.492829195198269,32.94482192472876,1.51119275,-3.6164610904166663,-0.454670621819445,False,1.1811
mp-505187,K12 Pb4 O10,26,Triclinic,2,592.2394866065221,4.087910677391129,22.778441792558542,1.15487078,-4.5034069030769235,-1.5069978645000002,False,2.1249000000000002
mp-559613,K24 Se8 O36,68,Tetragonal,92,1146.3912181880664,3.108490370367237,16.858694385118625,1.11626525,-5.15306113485294,-1.7229617032757352,True,1.6318000000000001
mp-1120789,K24 Sn8 S28,60,Orthorhombic,19,1912.1496278216052,2.419281403682395,31.869160463693422,0.51879591,-4.1425543925,-1.224162457899999,True,2.0416
mp-29386,K48 Sn16 Se56,120,Monoclinic,14,4273.440619052339,3.1854498841480012,35.61200515876949,0.50083465,-3.804705822416666,-1.186122996410416,False,1.9105
mp-28728,K24 Sn12 As20,56,Orthorhombic,59,1761.2148309914473,3.640588293417149,31.450264839132988,2.63115813,-3.432762770535711,-0.42079515882142504,True,0.7018999999999991
mp-558062,K24 Ti8 S24 O4,60,Monoclinic,14,1780.7280380610541,2.009412544022465,29.678800634350903,0.13390775,-5.256002966833333,-1.765514914844443,False,2.5171
mp-30149,K24 Tl8 Sb12,44,Monoclinic,15,1656.5517865940383,4.044256653487253,37.6489042407736,2.19831965,-2.6012558000000032,-0.42687704637879104,True,0.253099999999999
mp-559811,K24 U8 Cu48 S60,140,Cubic,230,3300.70091582682,3.93247783694494,23.576435113048717,3.11886226,-5.0620295465,-1.043832063385712,True,0.555399999999999
mp-558070,K6 U2 Mo4 O21,33,Triclinic,2,600.6011357591218,3.954749117112393,18.200034416943083,-0.33433545000000003,-7.899194174242439,-2.545835995409104,False,2.1736
mp-1194801,K12 U10 As4 O46,72,Monoclinic,14,1260.365591125597,5.118678292947067,17.50507765452218,3.10998944,-8.176505869027777,-2.9990442977361083,False,1.8012000000000001
mp-557365,K12 U10 V4 O46,72,Monoclinic,14,1222.2729255552952,5.147889877483373,16.976012854934655,1.22488706,-8.549663265555559,-3.126991497736112,False,1.7963
mp-1223803,K6 Zn4 Sn5 S17,32,Monoclinic,5,968.1485509730035,2.804098022876617,30.25464221790636,1.15192202,-4.263410098125,-1.068811201281249,True,1.5896
mp-1147618,K12 Zn2 S8,22,Hexagonal,186,634.0548290806395,2.243151334550573,28.820674049119976,0.31886744,-8.280913763181818,-1.266351713068181,True,1.9713999999999992
mp-1147626,K12 Zn2 Se8,22,Hexagonal,186,711.2280330530166,2.875658265994797,32.3285469569553,0.04023787,-3.242511682272727,-1.2396382407159081,True,1.6517
mp-3949,K28 Li4 Si32,64,Cubic,205,1951.9654482973153,1.719481549525758,30.499460129645552,1.72864821,-3.3855368965625,-0.058595948692708004,False,1.7232999999999992
mp-1211990,K28 Na4 Ge32,64,Cubic,205,2172.6530943798325,2.683571819704141,33.94770459968488,1.18300453,-3.09651870921875,-0.20617297935183101,True,1.3336000000000001
mp-17499,K7 Nb1 S6 O24,38,Trigonal,148,653.2517916759823,2.396990986366241,17.190836623052167,-0.57628924,-6.509126167894737,-2.256438940940789,False,2.8444000000000003
mp-1212978,K14 Nb28 P18 O120,180,Orthorhombic,51,2578.5550129224976,3.623169712623894,14.325305627347209,3.06169322,-8.421686528555556,-2.922188965805952,False,0.2736
mp-18361,K14 Nb2 As8,24,Orthorhombic,31,783.5129258445322,2.824166377028373,32.64637191018884,1.05564086,-3.505887382916666,-0.447438780479166,True,1.1294
mp-18073,K14 Ta2 As8,24,Orthorhombic,31,781.5311019618915,3.20545600208696,32.56379591507881,1.15590389,-3.650842007083334,-0.44525819609027706,True,1.0407
mp-567424,K32 Nb4 As20 Pb4,60,Monoclinic,15,2064.540988956944,3.177042514067846,34.40901648261573,1.24677001,-3.5290020225000003,-0.44796718553333303,True,1.2069
mp-1194900,K32 Nb4 Sn4 As20,60,Monoclinic,15,2051.7947002943492,2.910315581320832,34.196578338239156,1.3373395700000001,-3.5688116985000002,-0.46798187586666606,False,1.2448000000000001
mp-18633,K16 Sn2 Sb8,26,Cubic,227,1095.0355764447713,2.785782688898878,42.11675294018351,1.29545936,-2.760806386153844,-0.485688340230766,False,0.32020000000000004
mp-1204657,K16 Tl20 Zn2,38,Tetragonal,126,1479.6434258565655,5.436272967301469,38.93798489096225,2.31843064,-1.9128246378947351,-0.12201292428070301,False,0.10639999999999901
mp-704408,K32 V8 S24 O108,172,Monoclinic,4,2777.9542024139546,2.484377638746936,16.150896525662528,0.53653279,-6.528151038313954,-2.210851632220931,False,1.9921000000000002
mp-866664,K8 Zr6 B1 Br20,35,Cubic,225,1127.6092146683322,3.635928509308382,32.21740613338092,2.21089157,-4.7244343511428575,-1.8742776644904762,False,0.055299999999999
mp-1211836,K8 Zr6 Be1 Br20,35,Cubic,225,1147.0682091422066,3.5716441714241682,32.77337740406305,2.34904955,-4.593697900857142,-1.827540611514285,False,0.9222
mp-1212020,K8 Zr6 Mn1 Br20,35,Cubic,225,1183.998770006708,3.524649922621032,33.82853628590594,2.28776808,-4.724378545428572,-1.8032897581694591,False,0.14250000000000002
mp-554554,K18 Bi2 P8 S32,60,Orthorhombic,18,1657.507283821219,2.399982140829972,27.62512139702032,2.33654131,-4.537284129,-1.139017162460713,False,2.1005
mp-1212015,K18 Ce2 P8 S32,60,Monoclinic,15,1628.3286959296602,2.302535007730739,27.13881159882767,3.20175215,-4.749388299333333,-1.282890814127379,False,0.342099999999999
mp-14889,K36 Fe8 S28,72,Cubic,198,2024.9419774703072,2.256855176183103,28.124194131532043,1.556225999999999,-4.274692206805556,-1.158531823624999,False,0.748799999999999
mp-568644,K36 In4 Se28,68,Monoclinic,14,2342.303505239119,2.8908144737733963,34.445639782928225,1.22120365,-3.433555155441176,-1.232797414754288,False,1.8956
mp-13749,O28 K36 Ni8,72,Cubic,198,1338.8365458173014,2.883748767697042,18.594952025240296,2.24865625,-4.424945937361111,-1.292816609597221,False,0.5044000000000001
mp-558206,K9 U6 Bi1 O24,40,Cubic,221,673.8572120127109,5.847677005483054,16.84643030031777,3.01115504,-8.09747851075,-3.083181360881249,False,1.7081
mp-863710,K1 Ac1 Te2,4,Cubic,225,138.50672648490055,6.249777281369325,34.62668162122514,5.04904022,-32.95179044,-1.579242447812504,True,0.8620999999999991
mp-18429,K4 Ag4 N8 O24,40,Monoclinic,14,605.723964263344,2.9714309409564272,15.1430991065836,-0.48485057000000004,-6.0869161895,-1.053053297391665,False,2.4768
mp-557874,K4 Ag4 P8 O24,40,Monoclinic,14,625.5374740229994,3.237636061093626,15.638436850574985,0.79870635,-6.77964449425,-2.330342446070238,True,2.9041
mp-12015,K1 Ag2 As1 O4,8,Tetragonal,121,130.0800177257132,5.02647328165964,16.26000221571415,1.45797878,-5.2565774725,-1.346676018510416,False,0.2116
mp-12532,K1 Ag2 P1 S4,8,Tetragonal,121,188.3610971996221,3.6503124457238343,23.545137149952758,2.66010495,-4.3193373725,-0.721067763153272,False,1.2441
mp-561304,K8 Ag24 As16 S40,88,Orthorhombic,62,2164.9395272654983,4.128812779347776,24.601585537107937,2.94647398,-4.141002774886363,-0.5326186239545441,False,1.7252
mp-9782,K2 Ag6 Se4,12,Monoclinic,12,290.93660898916033,5.94297615154231,24.24471741576336,1.86420994,-3.341496139999999,-0.566161854489581,False,0.0041999999999990005
mp-1205342,K2 Ag6 Te4,12,Monoclinic,12,336.059840158106,6.106364297100817,28.004986679842165,3.11193826,-3.169243184999999,-0.511444094263886,False,0.2536
mp-28468,K6 Ag30 S18,54,Hexagonal,190,1219.5949552187483,5.5112885111143175,22.585091763310153,2.34987689,-15.610710269814815,-0.399305057835647,True,0.6972
mp-541966,K4 Ag4 C4 O12,24,Orthorhombic,73,368.61070487271735,3.729579558942426,15.358779369696556,0.55496219,-6.321043070833333,-1.6465670860694441,False,2.2257
mp-7387,K2 Ag2 F8,12,Tetragonal,140,195.22078253506677,3.792977087687259,16.268398544588898,-3.25020433,-3.966239883333333,-2.027953733152777,False,1.459
mp-3074,K4 Ag4 O4,12,Tetragonal,139,264.0651098774407,4.099159386853135,22.00542582312006,0.025970260000000002,-4.001340740833331,-1.027251272138884,False,1.4858
mp-997088,K2 Ag2 O4,8,Orthorhombic,63,149.23847112129258,3.9826040830217133,18.654808890161572,-0.56361765,-4.4885759125,-1.021018559729165,False,0.9659000000000001
mp-1196972,K12 Ag12 P12 Se36,72,Monoclinic,14,2105.312496150191,3.926211915396947,29.240451335419316,1.4663031100000001,-4.032797888611111,-0.7198786620429061,False,1.3696000000000002
mp-16236,K2 Ag2 Se2,6,Tetragonal,129,157.03071632481115,4.77817064343263,26.171786054135193,1.56917696,-3.302048998333333,-0.811976038753471,True,0.482199999999999
mp-1223690,K8 Ag8 Sn8 Se24,48,Tetragonal,103,1406.344570397475,4.747142166946491,29.298845216614065,1.69219685,-3.896445037916668,-0.8178427564079871,True,1.2891
mp-29373,K4 Al4 Sb16,24,Orthorhombic,62,811.4628576401394,4.527512710454111,33.81095240167247,4.15936196,-19.57364311875,-0.311038921041666,True,0.24520000000000003
mp-1211743,K8 Al8 Se16,32,Monoclinic,15,908.0266200764107,3.277088796150879,28.375831877387835,1.10099387,-4.344670859374999,-1.377478732359374,True,2.4189
mp-18347,K8 Al8 Te16,32,Monoclinic,15,1155.4337329939226,3.693835193292205,36.10730415606008,2.19000771,-16.85984304875,-0.963640327187501,False,2.2355
mp-713,K8 As8,16,Orthorhombic,19,503.7965661137013,3.006523046083559,31.487285382106332,1.6671528100000002,-3.338292345,-0.43754621737500005,True,0.6695
mp-1198282,K4 As8 H4 O24,40,Monoclinic,14,569.518440482875,3.334917393362475,14.237961012071874,2.56364086,-6.10490540075,-1.749450675099999,False,2.7514000000000003
mp-1223531,K1 As4 H3 O12,20,Triclinic,1,258.0743296288089,3.434661428502259,12.903716481440446,-0.15394219,-6.092492244000001,-1.6238476825500001,False,2.7809
mp-23083,K1 As4 Br1 O6,12,Hexagonal,191,228.5749412938226,3.739056918091068,19.047911774485218,1.09718143,-5.968895481666667,-1.7075144468541672,False,2.738699999999999
mp-23126,K1 As4 I1 O6,12,Hexagonal,191,238.23958634546827,3.9149699948605132,19.853298862122355,1.7959823,-5.912869634166667,-1.660899759354167,False,2.3379
mp-14659,K4 As4 Se8,16,Monoclinic,9,513.9751098231823,3.514308915641034,32.12344436394889,0.46303781,-4.045220629375001,-0.846891826734375,False,1.595899999999999
mp-1198481,K4 As4 W8 O36,52,Orthorhombic,19,814.7567653968985,5.100860551924955,15.66839933455574,-0.26314884,-7.961242127307693,-2.095903530365385,True,2.3938
mp-557441,K1 Au1 I4 O12,18,Triclinic,1,316.77895970479545,4.904763258976577,17.59883109471086,1.3662662,-4.798361996111111,-0.9163156492916661,False,2.1181
mp-555085,K2 Au2 N8 O24,36,Monoclinic,14,568.5186235995521,2.82784464374915,15.792183988876449,-1.88310119,-6.323844496666666,-0.9275170098472211,False,2.0087
mp-561454,K2 Au2 S4 O16,24,Monoclinic,15,332.7886229208581,4.2731408980513255,13.86619262170242,-0.00505754,-6.032302114583333,-1.6768305397708332,False,1.46
mp-29694,K4 Au4 Br16,24,Monoclinic,14,795.8701589502081,4.6375895925227955,33.161256622925336,-0.80469438,-2.923278042916666,-1.097771732458332,True,0.809999999999999
mp-27181,K4 Au4 Cl16,24,Monoclinic,7,745.1714261457379,3.368241353990244,31.04880942273908,-1.02682194,-3.285038462499999,-1.318467975374999,True,1.4257
mp-5309,K2 Au2 F8,12,Tetragonal,140,204.24600047944853,5.074129225310587,17.020500039954044,-2.44622412,-4.079966013333333,-2.069855809541666,False,2.0753
mp-12442,K1 Au1 F6,8,Trigonal,166,118.80880449814094,4.892570748282526,14.851100562267618,-3.31879269,-3.805106098749999,-1.819060352156249,False,2.1117
mp-31045,K4 Au4 I12,20,Monoclinic,14,804.8974507267882,5.089763555767355,40.24487253633941,0.99588837,-2.682272236999998,-0.8868143234499971,False,0.6459
mp-29519,K4 Au4 I16,24,Monoclinic,14,982.7772084845271,5.026222615704563,40.94905035352196,1.13945996,-2.5521645308333323,-0.8019475003749991,False,0.28190000000000004
mp-997002,K2 Au2 O4,8,Orthorhombic,63,152.21112650864933,5.84885224780643,19.026390813581166,0.21081779,-4.71933650125,-1.1440430680624991,False,1.4264000000000001
mp-7077,K2 Au2 S2,6,Orthorhombic,63,166.1357359771586,5.359956059761335,27.68928932952643,1.1049047,-22.423628548333337,-0.8775541588541671,False,2.1003
mp-3592,K4 Au4 S20,28,Orthorhombic,72,716.6973361011667,3.673633652161608,25.596333432184526,1.55561989,-14.231987040714285,-0.406527112544641,False,1.7779
mp-9881,K2 Au2 Se2,6,Orthorhombic,63,180.4161039679286,5.798940232275909,30.069350661321433,0.7786571800000001,-3.52982603,-0.8961049631979161,False,1.815999999999999
mp-29138,K2 Au2 Se4,8,Tetragonal,127,222.51301548888836,5.88035055105757,27.814126936111045,1.33203243,-3.666351818750001,-0.8170831492343761,False,0.8850000000000001
mp-15012,K6 B6 S12,24,Trigonal,167,598.9547055274228,1.896971951603248,24.956446063642616,0.65140855,-5.147245194583333,-1.125375037437499,True,2.7753
mp-1205075,K4 Ba8 Cd8 Sb12,32,Orthorhombic,62,1145.7193588238788,5.239975615686926,35.80372996324621,3.02950481,-3.172492703125,-0.7629497402812491,True,0.18759999999999902
mp-1205512,K1 Ba2 I1 O6,10,Cubic,225,167.2340202011926,5.328661912974667,16.72340202011926,2.44263141,-5.753584769,-2.135474944225,True,2.779
mp-23571,K2 Ba8 Bi6 O2,18,Tetragonal,140,709.9899925949874,5.7597984571965615,39.4438884774993,2.57877098,-4.1278920094444445,-1.302854963027778,False,0.7393000000000001
mp-557761,K2 Ba8 Sb6 O2,18,Tetragonal,140,675.2276010181977,4.769357723959427,37.51264450101098,2.73597499,-4.358397231111111,-1.45370454136111,False,1.022
mp-1191826,K4 Ba4 As4 Se12,24,Monoclinic,14,794.2359513210475,4.083017594288178,33.09316463837698,1.46559478,-4.374525208333334,-1.339824936963542,False,1.6299000000000001
mp-18038,K4 Ba4 Fe4 O12,24,Orthorhombic,64,451.5735602277189,4.122445017841101,18.815565009488285,1.3939339,-6.55775580625,-2.163714324958333,False,0.5118
mp-1192441,K4 Ba4 Mn4 O16,28,Orthorhombic,62,488.6895305167118,4.014478373635807,17.453197518453994,2.63180818,-6.798106458571429,-2.226077319311577,False,1.8093
mp-16780,K4 Ba4 Nb4 S16,28,Orthorhombic,62,843.2191383048719,3.131885827555398,30.114969225173997,1.1522897,-5.945922394999999,-1.7023383988928562,True,2.0731
mp-17088,K4 Ba4 P4 S16,28,Orthorhombic,62,806.3870201987382,2.764801374763911,28.79953643566922,1.555991409999999,-5.04304233392857,-1.4688628399132622,False,2.3898
mp-18156,K4 Ba4 P4 Se16,28,Orthorhombic,62,933.8926502999158,3.721450868440217,33.353308939282705,1.4819633300000001,-4.496630859285714,-1.289564559466837,True,1.3932
mp-24355,K16 Be16 H96 N48,176,Orthorhombic,61,1965.3558421673213,1.300183440051307,11.16679455776887,-0.89522471,-5.165767519602273,-0.596984387306817,True,2.8280000000000003
mp-31104,K16 Bi16,32,Monoclinic,14,1317.3994207253545,5.003121956310277,41.16873189766733,2.05112833,-32.7361899709375,-0.47592113031250705,False,0.4308
mp-557437,K2 Bi2 P4 S12,20,Monoclinic,4,514.2889233176055,3.244408851988575,25.714446165880275,2.30855905,-4.878034305,-0.8097834561535701,False,2.2272