material_id,composition,nsites,crystal_system,space_group,volume,density,density_atomic,efermi,energy_per_atom,formation_energy_per_atom,is_gap_direct,band_gap
mp-1110784,Rb2 Ag1 Mo1 F6,10,Cubic,225,173.52755470582318,4.676849538631881,17.352755470582316,0.013177610000000001,-5.30388444000001,-2.590607421666676,True,2.6738
mp-1105212,Rb4 Ag2 P2 S8,16,Triclinic,2,458.1123424363766,3.175546332023303,28.632021402273537,1.41145597,-4.33694723375,-0.990332531413689,False,2.2636
mp-1110602,Rb2 Ag1 Rh1 F6,10,Cubic,225,172.96377428274786,4.758966161831451,17.296377428274788,0.13435921,-4.629635298999999,-2.264492504666665,False,1.390499999999999
mp-1110803,Rb2 Ag1 Sb1 Cl6,10,Cubic,225,311.42298840531134,3.270080969133103,31.142298840531133,1.07258795,-3.618211762,-1.615785375666666,False,1.6275
mp-557540,Rb8 Ag4 Sb4 S16,32,Monoclinic,14,979.6760925084837,3.585399647752496,30.614877890890117,2.04518054,-4.0732688203125,-0.8874631536458321,True,1.5190000000000001
mp-1205560,Rb4 As4 Pd2,10,Orthorhombic,63,309.1771613383389,4.588827282933428,30.917716133833892,1.69870148,-3.7935505110000003,-0.49731150700000004,False,1.1458
mp-15556,Rb4 As6,10,Orthorhombic,69,357.21048475557,3.678928815982916,35.721048475557,1.77841584,-3.601258795999999,-0.40697164749999903,False,0.39680000000000004
mp-16184,Rb4 B4 Se14,22,Monoclinic,15,637.3124204335259,3.8836919871106463,28.968746383342083,0.9367196,-4.437263315909092,-0.8198785858854161,False,1.7163
mp-571293,Rb8 Ba4 Nb8 Se44,64,Monoclinic,14,1920.5705523722634,4.712577199552886,30.008914880816615,1.47489653,-5.126164949687499,-1.217559985986327,False,1.5628000000000002
mp-755752,Rb8 Be8 O12,28,Orthorhombic,62,440.40510599716845,3.573784982178108,15.72875378561316,1.10319242,-5.846834382142857,-2.3777233978571433,True,2.455
mp-989573,Rb2 Br1 Cl6 F1,10,Cubic,225,256.3442047259175,3.125887304504135,25.63442047259175,0.16159894,-2.841605019,-1.1812926335,True,0.9202999999999991
mp-1029784,Rb6 C3 N6,15,Monoclinic,12,310.2616900838648,3.387206682528483,20.68411267225765,0.77108726,-6.146160656,-0.5729028305,True,2.8228
mp-541897,Rb4 Cd2 P4 Se12,22,Monoclinic,14,693.839135314636,3.920422764694838,31.538142514301637,1.21803082,-4.011350242727273,-0.854305310758928,False,1.7916999999999992
mp-1209499,Rb4 Cd4 O6,14,Monoclinic,14,273.9954078836132,5.378731327083722,19.57110056311523,0.34635855,-4.044920198571428,-1.369924264285714,False,1.0967
mp-18556,Rb8 Cd12 S16,36,Orthorhombic,62,1011.0137409558909,4.181207477565439,28.083715026552525,0.92524765,-3.426596107777777,-1.049425331666664,True,1.8924
mp-16818,Rb8 Cd12 Se16,36,Orthorhombic,62,1126.4594692966655,4.858757936026603,31.290540813796262,0.641294599999999,-3.133987261388887,-1.042348969652775,True,1.5237
mp-29901,Rb8 Cd12 Te16,36,Monoclinic,15,1340.779552095867,5.045938982790017,37.24387644710742,1.64509292,-2.798152902222221,-0.863228203518516,True,1.4415
mp-1209531,Rb4 Cd2 I8,14,Monoclinic,11,666.0933629707251,3.94367364201069,47.578097355051796,-0.44246267,-2.6372799507142872,-1.349118694285715,True,2.8476999999999992
mp-28364,Rb8 Cd4 O8,20,Orthorhombic,60,425.7901167915607,4.91926266507445,21.289505839578034,0.60747686,-3.9170275494999993,-1.353627480499999,False,1.3109
mp-558568,Rb16 Cd8 Si8 O32,64,Orthorhombic,20,1101.6411856310685,4.527177754377787,17.213143525485446,0.94252452,-5.8296708784375,-2.312390830312499,True,2.4877000000000002
mp-23366,Rb8 Co4 Br16,28,Orthorhombic,62,989.5699183894727,3.688232439745912,35.34178279962403,0.36426775,-3.726213035714287,-1.4916028921428581,False,0.7445
mp-23076,Rb8 Co4 Cl16,28,Orthorhombic,62,849.6273981745227,2.9056995182995182,30.343835649090096,0.557827,-4.120397203214287,-1.764874908214286,False,0.7331000000000001
mp-560878,Rb2 Co1 F6,9,Cubic,225,147.89574373500795,3.860771406731968,16.432860415000885,-2.6403148400000003,-4.76808583,-2.481685928333333,False,1.179
mp-27517,Rb4 Co2 I8,14,Monoclinic,11,619.0173880404202,3.956675397475176,44.21552771717287,1.04739785,-3.292260154285713,-1.122183679285713,False,0.557499999999999
mp-1277299,Rb4 Co2 O6,12,Orthorhombic,63,197.96851146885425,4.661438297361132,16.497375955737855,1.44379544,-5.449401424166666,-1.4596734441666661,False,0.575299999999999
mp-1219755,Rb4 Cr2 Br4 Cl4,14,Orthorhombic,64,449.8160585228962,3.349353109885737,32.12971846592116,1.56320937,-4.426159737857143,-1.771146268571428,False,0.34240000000000004
mp-622624,Rb8 Cr8 As8 O36,60,Orthorhombic,62,949.6686505616291,3.978050651581018,15.827810842693818,0.96016919,-7.108557407166667,-2.0992869275,True,2.2216
mp-17385,Rb4 Cr4 O14,22,Monoclinic,15,388.3481168202826,3.308895940323793,17.652187128194665,-1.85075565,-7.017274270227272,-1.9351933502272711,False,2.765
mp-33498,Rb4 Cr2 Cl8,14,Orthorhombic,64,408.69377755670706,2.963936308338789,29.19241268262193,1.8251316800000001,-4.621842268571428,-1.906372723571428,False,0.5668000000000001
mp-2041196,Rb2 Cr1 F6,9,Tetragonal,139,151.851083096319,3.684348704832016,16.872342566257668,-2.76175345,-5.531312068888889,-2.964953194999999,True,1.878099999999999
mp-571638,Rb4 Cu2 Br4 Cl4,14,Orthorhombic,64,443.18966329041456,3.485981426891885,31.656404520743898,0.21518278000000002,-3.443156592142857,-1.581548951428571,False,0.136599999999999
mp-1195291,Rb8 Cu8 Sb8 S20,44,Monoclinic,14,1155.3705322011933,4.035023707435736,26.25842118639076,3.53726762,-4.3523573254545465,-0.7969680706818171,False,1.1696
mp-1198918,Rb4 Cu6 P8 O28,46,Monoclinic,14,647.5279326901239,3.638720118557421,14.076694188915736,1.791224629999999,-6.80953398673913,-2.2359671899378872,False,0.607
mp-1110686,Rb2 Cu1 Sb1 Cl6,10,Cubic,225,282.3571137542514,3.346045121921012,28.235711375425137,2.22779656,-3.716317685,-1.588264399499999,False,0.9004999999999991
mp-1200007,Rb8 Fe8 As8 O36,60,Orthorhombic,62,978.4821349866829,3.913162895623394,16.308035583111383,-0.10727578,-6.723146452166666,-1.8716128071666662,False,1.6391
mp-1206640,Rb2 Fe1 F4,7,Tetragonal,139,120.35284577193308,4.177453432768849,17.193263681704725,-0.48161519,-5.411474207142858,-2.827688656428572,False,2.8943000000000003
mp-28600,Rb8 Fe4 F20,32,Orthorhombic,62,521.2138297970756,4.100551204776018,16.287932181158613,-2.33076863,-5.398078079062505,-2.898034175312505,False,2.8688000000000002
mp-1101471,Rb8 Fe4 O16,28,Orthorhombic,62,508.54752612089385,3.797863806348305,18.162411647174782,0.78962806,-5.748711122142857,-1.43114921142857,False,1.7002000000000002
mp-1110609,Rb2 Ga1 Ag1 F6,10,Cubic,225,169.71613013663122,4.525367805867886,16.971613013663124,-0.53805464,-4.6289611619999995,-2.6974395524166663,False,2.4254
mp-15416,Rb16 Ga8 As16,40,Monoclinic,14,1389.0514541183802,3.734597404898477,34.726286352959505,1.19454231,-3.337592910250001,-0.47171106375000105,False,0.8679999999999991
mp-29371,Rb16 Ga8 Sb16,40,Orthorhombic,62,1581.464834524584,4.06710266562906,39.5366208631146,2.42219309,-3.13969530125,-0.490261971749999,False,1.045
mp-541879,Rb8 Ge8 S20,36,Monoclinic,15,1077.9363770244647,2.936404411196689,29.942677139568463,0.31279143,-4.598753461111112,-1.054428828611111,False,2.4577
mp-541880,Rb8 Ge8 Se20,36,Monoclinic,15,1227.949513842194,3.8459860684916363,34.10970871783872,1.56945138,-4.147474408055554,-0.960065381024303,False,1.54
mp-557372,Rb12 Ge24 O54,90,Trigonal,165,1262.434115077184,4.7785787133072315,14.027045723079823,1.44622442,-6.485030125333333,-2.152708218,True,2.862
mp-11639,Rb4 Ge2 S6,12,Monoclinic,12,372.74016394818983,3.027322567044559,31.061680329015818,0.50525716,-4.362619344166667,-1.196090227083332,False,2.279899999999999
mp-9794,Rb4 Ge2 Se6,12,Monoclinic,12,419.19606373375274,3.8064064173725902,34.93300531114606,0.26010847,-3.955897290833332,-1.110592218671873,False,1.4969000000000001
mp-644494,Rb4 H8 Pd2,14,Tetragonal,136,294.94501437990084,3.1684190703125132,21.067501027135773,-1.51924998,-3.332752727142856,-0.37252191142857005,False,2.997
mp-21760,Rb16 In16 Sb24,56,Monoclinic,14,2114.541797115475,4.81135535936126,37.75967494849063,3.61785737,-3.259907924464284,-0.42184801708333103,True,0.9657999999999991
mp-27563,Rb2 In4 O7,13,Trigonal,162,204.36991709212873,6.030524250336519,15.720762853240672,2.94567545,-5.5584429538461535,-1.8943283266666642,False,1.4515999999999991
mp-1111634,Rb2 In1 Ag1 Cl6,10,Cubic,225,294.8747239722056,3.4145040035012793,29.487472397220557,0.29840226000000003,-3.5761866049999993,-1.710742968333332,True,1.2930000000000001
mp-1110608,Rb2 In1 Ag1 F6,10,Cubic,225,188.82908107521712,4.463877681686978,18.88290810752171,0.11177376,-4.526358544,-2.621729162333333,False,1.8555000000000001
mp-1113736,Rb2 Li1 Co1 F6,10,Cubic,225,139.7729133876992,4.167599044279583,13.97729133876992,1.24836996,-4.967113899999999,-2.7184617018333332,True,2.8411
mp-989583,Rb2 Li1 In1 Cl6,10,Cubic,225,274.5545136436541,3.056796830305095,27.45545136436541,-0.23958333,-3.7524209589999993,-1.980378803499999,True,2.8282
mp-553962,Rb8 Li4 Nb4 S16,32,Triclinic,2,946.273444327009,2.800993566986309,29.57104513521903,1.22422436,-5.2873305225,-1.471738732291666,False,2.3505000000000003
mp-1206187,Rb2 Li1 Rh1 Cl6,10,Trigonal,164,267.09430783500386,3.068115535907391,26.709430783500387,0.53791513,-4.033595867,-1.8010402988333332,False,1.6499000000000001
mp-1113707,Rb2 Li1 Rh1 F6,10,Cubic,225,147.77691865800847,4.435978206236426,14.777691865800847,0.12166667,-4.916910772,-2.645169458833333,True,1.7225000000000001
mp-1110680,Rb2 Li1 Sb1 Cl6,10,Cubic,225,278.0206653745919,3.060149604727796,27.80206653745919,0.50708333,-3.787190120999999,-1.8781652158333322,False,2.9411
mp-680436,Rb16 Li8 Sn32,56,Triclinic,2,2034.8301962419232,4.261235815037861,36.336253504320055,3.06171606,-3.135499364464284,-0.291459588511903,True,1.087899999999999
mp-558815,Rb4 Li2 V2 S8,16,Orthorhombic,70,469.0370200452868,2.528338316749715,29.314813752830425,0.36794846000000003,-5.120613066875,-1.432196147916666,True,1.5836000000000001
mp-1025227,Rb2 Mg1 Cl4,7,Tetragonal,139,201.8031888312532,2.773439870006772,28.829026975893317,3.9617024,-3.843330685714284,-2.273943634285713,True,0.0009000000000000001
mp-1541753,Rb8 Mg4 O8,20,Orthorhombic,72,379.71621111892205,3.974967516491585,18.985810555946102,1.17822026,-4.5985464525,-1.9010544184999991,True,2.311099999999999
mp-559643,Rb4 Mn2 P4 S12,22,Monoclinic,14,597.9972535297757,2.66693334002896,27.18169334226253,2.96511002,-5.245448599090909,-0.9923406088378841,True,0.23520000000000002
mp-1105776,Rb4 Mn6 S8,18,Orthorhombic,72,468.2149689648238,3.291250145008073,26.01194272026799,2.51186814,-6.116701268333333,-1.005528791532566,False,0.387
mp-1209522,Rb4 Mn6 Te8,18,Orthorhombic,72,636.7601722521399,4.413167633243146,35.37556512511888,2.75907431,-5.330724423333332,-0.661798023939972,True,0.24270000000000003
mp-22978,Rb2 Mn1 Cl4,7,Tetragonal,139,206.42802071514225,2.9577204472306042,29.489717245020323,1.18056017,-4.599409265714286,-1.954087174704433,False,1.2877
mp-571648,Rb2 Mn1 Cl6,9,Cubic,225,241.7560222857117,3.012535340055115,26.861780253967968,-0.57847454,-4.307813721111111,-1.839553694770114,False,1.2037
mp-555014,Rb2 Mn1 F5,8,Tetragonal,123,149.1685252624626,3.571865876420315,18.646065657807824,-1.33006713,-5.558675035,-2.972131870991379,False,1.5873
mp-1209441,Rb4 Mn2 I8,14,Monoclinic,11,644.6604560687039,3.778706513844877,46.04717543347885,0.47453599,-3.761009347142857,-1.301133076133005,True,2.091
mp-505209,Rb8 Mn4 O16,28,Orthorhombic,62,512.7969112683886,3.75464450763475,18.31417540244245,0.05133045,-6.137964108571428,-1.721545900418719,False,0.6351
mp-19472,Rb8 Mn4 V8 O28,48,Tetragonal,136,924.9996450930764,3.157735760998654,19.270825939439092,0.04178983,-7.716182752291666,-2.388964201285919,True,2.6012999999999993
mp-1219951,Rb8 Mo8 P8 O44,68,Monoclinic,4,1064.549539499581,3.748363568259147,15.655140286758543,1.22358857,-7.670840959264706,-2.440788813928571,False,2.4189
mp-1210317,Rb8 Mo12 P12 O68,100,Monoclinic,14,1583.1609378963765,3.455695949086076,15.831609378963766,0.69582244,-7.779155919,-2.384764873557143,True,2.3576
mp-557413,Rb8 Mo12 S4 O52,76,Monoclinic,14,1238.5195278596075,3.747719526539981,16.2963095771001,-0.66436752,-7.479435139868422,-2.060494555263159,False,2.8832
mp-1194625,Rb8 Mo12 Se12 O64,96,Monoclinic,14,1625.9082886384683,3.887580033473,16.93654467331738,0.01593846,-6.935441421666667,-1.762394380501302,False,2.6974
mp-1198721,Rb4 Mo6 Se2 O24,36,Hexagonal,173,554.6957800289503,4.368914814397682,15.408216111915285,0.29207364,-7.366441572777777,-1.957027016519096,False,2.5069
mp-555873,Rb4 Mo2 As4 O18,28,Triclinic,2,506.46205441867534,3.676826319929643,18.087930514952692,-0.69718146,-6.718278190714286,-1.955520164642857,False,2.761
mp-18612,Rb8 Mo4 S16,28,Orthorhombic,62,864.0736069011366,3.037417623517359,30.859771675040594,0.49749534,-5.435104905714285,-1.240796830714284,True,1.5750000000000002
mp-1193232,Rb8 Mo4 Se16,28,Orthorhombic,62,956.4476588767893,4.046732759651865,34.158844959885336,1.38846356,-4.927172161785715,-1.099977280982144,True,1.0392
mp-504851,Rb8 Na12 In4 O16,40,Orthorhombic,58,732.7483278126618,3.795582929983435,18.318708195316546,2.9406948,-4.4836015085,-1.629876684080459,True,1.9079000000000002
mp-18151,Rb4 Na8 Co4 O10,26,Tetragonal,136,440.73251574789896,3.471977870321279,16.951250605688422,1.59316711,-4.999944848846154,-1.435745639270557,False,1.3561
mp-1206059,Rb2 Na1 Cr1 Cl6,10,Cubic,225,272.9426398915875,2.7902886721057323,27.294263989158747,0.33653383000000003,-4.392179571,-1.9874702516379301,True,1.3631
mp-1206176,Rb2 Na1 Cu1 F6,10,Cubic,225,154.87608148718257,3.982711891966313,15.487608148718257,-1.39695443,-4.46181597,-2.573304985637931,False,0.7354
mp-18518,Rb4 Na2 Mn6 F24,36,Triclinic,2,533.5481034271942,3.652049530045886,14.820780650755394,-1.47087492,-5.9261407761111125,-2.939748370565135,False,1.8271000000000002
mp-558050,Rb2 Na1 Mn1 F6,10,Tetragonal,139,160.71936278326254,3.748975577831617,16.071936278326255,-0.8452329900000001,-5.380101318999999,-2.985309472431034,False,1.678599999999999
mp-18873,Rb4 Na2 Mn2 O8,16,Monoclinic,11,275.7186708834195,3.768463956129435,17.23241693021372,0.53822359,-5.847650371250002,-1.815569341788795,False,1.811599999999999
mp-1205865,Rb2 Na1 Pd1 F6,10,Tetragonal,139,167.39587822181625,4.11014160426255,16.739587822181626,-0.38750226,-4.501113445,-2.5045349466379303,False,0.5886
mp-14038,Rb2 Na1 Rh1 F6,10,Cubic,225,162.6567809612567,4.194013891584873,16.26567809612567,0.30250179,-4.853334492,-2.63831338763793,True,1.957
mp-1114119,Rb2 Na1 Sc1 I6,10,Cubic,225,426.30124806267435,3.896424625451023,42.63012480626743,0.7675000000000001,-3.439522203000001,-1.561588831137932,False,2.2079
mp-554147,Rb4 Nb4 P4 S22,34,Monoclinic,11,952.2225625005674,2.6904590580559313,28.006545955899043,1.9463989700000002,-5.72881324382353,-1.110190860399159,True,1.119099999999999
mp-558393,Rb4 Nb6 Cl14 O10,34,Monoclinic,15,824.6942801393953,3.132324493487547,24.255714121746923,-0.79683011,-6.575368368235295,-2.460980845294118,True,2.2762000000000002
mp-14636,Rb4 Nb2 Ag2 S8,16,Orthorhombic,70,503.16648937007125,3.299981352352818,31.447905585629453,0.58494709,-5.1956631375,-1.263319495833332,False,2.1794000000000002
mp-9764,Rb4 Nb2 Ag2 Se8,16,Orthorhombic,70,551.3044355188575,4.141827493418777,34.456527219928596,0.49661676,-4.777226801249999,-1.166107204505207,False,1.7584
mp-15221,Rb4 Nb2 Cu2 S8,16,Orthorhombic,70,471.78364543882054,3.207492581493021,29.486477839926284,1.25257273,-5.405047423125,-1.3156701574999992,False,1.9749
mp-15222,Rb4 Nb2 Cu2 Se8,16,Orthorhombic,70,521.2685951855705,4.098099135014877,32.579287199098154,0.93032177,-4.960720204999999,-1.192566984296874,False,1.639399999999999
mp-8994,Rb2 Nb1 F6,9,Trigonal,164,150.7980959602558,4.160566189537066,16.755343995583978,1.9898775400000002,-5.851578096666665,-3.235412826111109,False,0.22829999999999903
mp-1079718,Rb2 Ni3 S4,9,Orthorhombic,69,200.3672182339372,3.938838100692336,22.263024248215245,3.47403028,-4.930707757777778,-0.9468281516666661,False,0.8026000000000001
mp-18691,Rb4 Ni6 Se8,18,Orthorhombic,70,446.6522867600814,4.9286569622496295,24.814015931115634,1.20013859,-4.543760967777779,-0.845413846041668,False,0.2661
mp-1205648,Rb4 Ni2 As4,10,Orthorhombic,63,291.0231916331726,4.330434349595817,29.102319163317258,2.59738137,-3.808825912,-0.39253593400000003,False,0.5596999999999991
mp-556417,Rb2 Ni1 F6,9,Cubic,225,146.02450925512437,3.907518488058048,16.224945472791596,-3.17595707,-4.525830256666663,-2.389794803888885,False,2.421599999999999
mp-19167,Rb2 Ni1 O2,5,Tetragonal,139,113.0600229530859,3.842588843174771,22.612004590617182,-0.06701135,-4.792896704999999,-1.265471337999999,True,2.8076
mp-1205511,Rb4 Ni2 P4,10,Orthorhombic,63,268.8856535224585,3.60133910205062,26.88856535224585,3.16842909,-4.1498223140000015,-0.43539193885714206,False,0.6448
mp-753746,Rb2 O1,3,Trigonal,166,96.20782920808556,3.226482428404933,32.06927640269519,0.53506081,-3.43617809,-1.133168373333332,False,0.4534
mp-7895,Rb2 O2,4,Orthorhombic,71,88.54103940072844,3.805924364992925,22.13525985018211,1.29022195,-4.1972411,-1.23299356125,False,1.76
mp-1205714,Rb4 P4 Pd2,10,Orthorhombic,63,290.17306068958675,3.883379742299029,29.017306068958675,2.22441422,-4.099531158000002,-0.5051517568571441,False,1.265299999999999
mp-2079,Rb4 P6,10,Orthorhombic,69,321.0463988705387,2.729478783975418,32.10463988705387,2.31509446,-4.072774383,-0.43127663878571404,True,0.7643999999999991
mp-1196612,Rb16 P8 S24,48,Monoclinic,14,1528.5151745354146,2.590822504200919,31.84406613615447,0.791503899999999,-4.489681842916666,-1.191078447440475,True,2.8545
mp-555122,Rb4 Pd2 N8 O24,38,Monoclinic,14,644.5547542156297,2.70700367507004,16.961967216200783,0.16343177,-6.390292369210526,-1.133998001052631,False,1.8294000000000001
mp-11695,Rb2 Pd3 S4,9,Orthorhombic,69,224.77253878478706,4.568928616946554,24.974726531643007,1.94353394,-4.734414442222219,-0.9506197927777731,False,1.184899999999999
mp-14340,Rb4 Pd6 Se8,18,Orthorhombic,70,493.1541628489084,5.428134663360606,27.397453491606022,1.62311938,-4.428611713333333,-0.930349548263888,False,0.882599999999999
mp-28084,Rb2 Pd1 Br6,9,Cubic,225,287.8257554495306,4.366051567008823,31.980639494392292,-0.50427101,-3.224109417777777,-1.339372843888888,False,0.547899999999999
mp-1025201,Rb2 Pd1 Cl4,7,Tetragonal,123,228.49132659374055,3.046260817114228,32.64161808482008,-1.21783317,-3.809887898571429,-1.733442019285714,True,1.7485
mp-28145,Rb2 Pd1 Cl6,9,Cubic,225,245.20533574991222,3.3187954732734353,27.245037305545804,-0.75728679,-3.600853567777777,-1.575052817222221,False,1.2868
mp-14088,Rb2 Pd1 F6,9,Cubic,225,152.8630793482185,4.251159640449615,16.9847865942465,-2.83760292,-4.470746124444445,-2.401405657222222,True,2.2306
mp-1069771,Rb2 Pd1 Se2,5,Orthorhombic,71,148.2176772272138,4.876558262546061,29.643535445442758,1.54803756,-3.892847088000002,-1.066292505937501,False,0.889
mp-8041,Rb2 S1,3,Cubic,225,117.60616016832167,2.866265052449509,39.20205338944056,-0.02807853,-3.193572716666667,-1.160430145833334,False,1.9632
mp-7446,Rb4 S6,10,Orthorhombic,36,306.6292394225025,2.893271352854191,30.662923942250252,1.57122471,-3.961274148999999,-1.0860447794999981,False,1.3433
mp-16911,Rb8 S20,28,Orthorhombic,19,839.3706492482418,2.621350498819616,29.977523187437207,1.21777355,-4.190726713571429,-0.9546030017857141,False,1.9539
mp-558023,Rb4 Sb8 O22,34,Monoclinic,12,536.5204876333061,5.162293469694399,15.780014342156061,2.00894872,-6.270760258235293,-1.982251778235292,False,1.8332000000000002
mp-561051,Rb4 Sb8 S14,26,Triclinic,2,832.2211833845065,3.521444813274522,32.00850705325025,2.01855001,-4.471608203076924,-0.8219474278846141,False,1.834
mp-560587,Rb8 Sb32 O52,92,Monoclinic,11,1917.5828032727916,4.686571668206403,20.84329133992165,2.59921433,-6.130024473478261,-1.811912685217391,False,2.5413
mp-1114049,Rb2 Sc1 In1 Cl6,10,Cubic,225,327.0377953830439,2.759260936444126,32.70377953830439,0.43478208,-4.382824457999999,-2.168427678666666,True,2.6355
mp-11327,Rb2 Se1,3,Cubic,225,130.79024531122957,3.172724428981697,43.59674843707652,-0.33520508,-3.026281256666666,-1.207288049114582,False,1.7968000000000002