material_id,composition,nsites,crystal_system,space_group,volume,density,density_atomic,efermi,energy_per_atom,formation_energy_per_atom,is_gap_direct,band_gap
mp-1018040,Mg2 Se2,4,Hexagonal,186,105.19956856773545,3.260005132094054,26.299892141933864,0.58356759,-4.03748746,-1.474296713671875,True,2.5765000000000002
mp-1103590,Mg4 Se8,12,Cubic,205,269.58582676896225,4.489727594922995,22.465485564080186,2.88474898,-4.007350603333333,-1.1332529465625,False,1.968499999999999
mp-12630,Mg2 Se2 O8,12,Orthorhombic,63,144.63734978159653,3.840585880486441,12.05311248179971,1.32942344,-6.023788655833333,-1.8707510703906252,False,2.868999999999999
mp-1016197,Mg2 Si2 As4,8,Tetragonal,122,187.03667895849475,3.590920896404339,23.379584869811843,3.34683907,-4.39634083875,-0.297332561249999,True,1.303199999999999
mp-2961,Mg2 Si2 P4,8,Tetragonal,122,166.4438551295536,2.2814030052604393,20.8054818911942,4.14841178,-4.882946115,-0.411262341071428,True,1.3728
mp-2713729,Mg6 Sn6 S18 O72,102,Trigonal,161,1472.5948355641442,2.9174179254254913,14.437204270236707,0.54470105,-6.6067237338235305,-2.05197946132353,True,2.243
mp-1009082,Mg2 Sn2 As4,8,Tetragonal,122,221.55629888669645,4.389877286430483,27.694537360837057,3.21942896,-4.04382228375,-0.29875055,True,0.40340000000000004
mp-1029791,Mg4 Sn4 N8,16,Orthorhombic,33,223.1496246597458,5.090742861541945,13.946851541234112,6.16246188,-6.104413185625,-0.5252638456250001,True,1.0648
mp-9650,Mg2 Ta4 O12,18,Tetragonal,136,205.7041419513851,7.785037426935283,11.428007886188063,2.50467019,-9.442702570000002,-3.325803555518519,False,2.8397
mp-13033,Mg1 Te1,2,Cubic,216,67.5217326217723,3.7357481379341433,33.76086631088615,2.01316235,-3.458457757500001,-1.071569803333334,True,2.3186
mp-2604,Mg4 Te8,12,Cubic,205,356.0161089071634,5.214696303880582,29.668009075596952,4.8863282,-3.488444862499998,-0.849417595277775,False,1.116199999999999
mp-1210588,Mg2 Te2 O8,12,Monoclinic,13,131.64439596470618,5.446714222102258,10.970366330392181,5.8230067,-6.151184784166666,-2.05691479611111,False,1.475099999999999
mp-2713802,Mg6 Ti6 S18 O72,102,Trigonal,161,1421.0346807942196,2.526573914147064,13.931712556806074,0.17466121,-7.107267942156864,-2.323940130735294,True,2.2063
mp-28232,Mg2 Ti4 O10,16,Orthorhombic,63,182.08546974502198,3.6484799494604223,11.380341859063874,1.99527746,-8.69270153625,-3.422544152083334,False,2.7175000000000002
mp-1222070,Mg1 Ti4 P6 O24,35,Trigonal,148,452.5357988260926,2.882692242816501,12.929594252174075,1.04102609,-8.317685487714286,-3.047504249034013,True,2.4111000000000002
mp-1221997,Mg2 Ti8 Fe2 O20,32,Orthorhombic,38,378.3020997425784,3.789080674418961,11.821940616955574,3.08086603,-8.9197262990625,-3.222096965208333,False,1.394299999999999
mp-1245745,Mg1 Ti1 N2,4,Trigonal,166,39.18412974966379,4.245641581573597,9.796032437415947,6.55116511,-8.035151845,-1.484522464583333,False,0.36500000000000005
mp-557384,Mg4 U4 B8 O28,44,Orthorhombic,57,585.8796063228535,4.488931007984306,13.31544559824667,1.95414581,-8.743513705681819,-3.205660014621211,False,2.191099999999999
mp-2271432,Mg1 U1 O4,6,Orthorhombic,65,77.30326246727465,7.009875181490162,12.883877077879108,4.02168949,-8.909627118333333,-3.457339777499998,False,1.6809
mp-1040943,Mg6 V12 O24,42,Trigonal,156,471.9696302508868,4.014800086228653,11.237372148830637,5.37682193,-8.357395600952382,-2.701663290238095,False,0.00019999999999900002
mp-504510,Mg1 V2 O6,9,Monoclinic,12,117.02743487608689,3.152644305839352,13.00304831956521,2.94061199,-8.02515245,-2.526702651666667,False,2.7654
mp-557238,Mg8 V16 Pb8 O56,88,Monoclinic,14,1233.7097228248197,4.795793926871902,14.01942866846386,1.71537655,-7.6977832799999995,-2.411723619999999,False,2.545199999999999
mp-1222158,Mg1 V4 Cu3 O14,22,Triclinic,1,308.9463325019805,3.454416971984667,14.043015113726387,1.08978636,-7.460238555909092,-2.026821811590909,False,0.348099999999999
mp-1221990,Mg2 V2 Cr2 O8,14,Orthorhombic,74,154.93334662208747,4.099334715579239,11.066667615863391,3.90063664,-8.409830824285715,-2.672792599285713,False,1.857899999999999
mp-27186,Mg2 V2 O6,10,Orthorhombic,63,139.19166731988958,2.9405875084614843,13.919166731988957,1.09913727,-7.880577794,-2.768925973999999,False,2.7895000000000003
mp-1210656,Mg2 Zn4 As4 O16,26,Monoclinic,14,360.20297995011225,3.991912110940353,13.85396076731201,0.23977157000000002,-6.093215264999999,-2.01060831576923,False,2.705
mp-1025315,Mn1 Al2 Te4,7,Tetragonal,121,223.73012807779244,4.596491837007969,31.961446868256065,4.22012296,-4.768623058571429,-0.5934244120853861,False,0.32519999999999905
mp-752598,Mn4 As8 O16,28,Tetragonal,135,423.3216319920256,4.217292372212471,15.118629714000914,2.1907539,-7.228655529999996,-1.758069190418715,False,2.0961
mp-19409,Mn4 As8 O24,36,Trigonal,162,375.6570854934846,5.318180321037587,10.434919041485683,3.57856145,-7.185722136388888,-1.831274760047892,False,1.7241
mp-1104183,Mn2 Bi4 Se8,14,Monoclinic,12,379.588680722146,6.900794106798819,27.113477194439003,4.34427463,-27.585779975714285,-0.5951909629618221,False,0.334999999999999
mp-18750,Mn2 Fe4 O8,14,Cubic,227,139.38851348252413,5.494898879602974,9.956322391608866,4.18816085,-8.392388734285715,-1.836117058275863,False,0.9977
mp-20025,Mn1 Ga2 S4,7,Tetragonal,82,152.93032801395523,3.503314537319627,21.84718971627932,2.73043654,-10.883485397142858,-0.9250735536761081,False,1.1791
mp-20261,Mn1 Ga2 Se4,7,Tetragonal,82,176.30233390667465,4.805648006280308,25.18604770095352,2.08616525,-14.351778790000001,-0.8067605758189631,False,0.8566
mp-554980,Mn2 I4 O12,18,Monoclinic,4,272.80477050786436,4.927276025923084,15.155820583770243,2.9354541100000002,-5.820314838888889,-1.165002999770115,True,2.2873
mp-1221979,Mn1 In2 Te4,7,Tetragonal,82,247.91949115458263,5.324653791873215,35.41707016494038,4.11647016,-23.600586972857144,-0.527813733497538,False,0.34439999999999904
mp-542070,Mn4 N8 O24,36,Cubic,205,447.1539949730617,2.65814364489158,12.42094430480727,-0.09352019,-7.292616733611112,-1.123023754492338,True,2.7614
mp-780939,Mn4 N16 O48,68,Triclinic,2,1095.8777690853108,1.836237650728258,16.115849545372217,-2.358278089999999,-6.874987022794118,-0.88141888561359,False,0.1423
mp-19442,Mn1 Ni6 O8,15,Cubic,225,144.6642070855784,6.142112964309543,9.644280472371893,4.80416538,-6.923200371999999,-1.361432144528734,False,1.4245
mp-542139,Mn4 P8 O24,36,Monoclinic,15,451.56344657925473,3.131332518405578,12.543429071645965,2.30835641,-8.115417330555555,-2.595336400246305,True,2.304
mp-771905,Mn6 P18 O54,78,Monoclinic,9,989.654714167511,2.9382057028280912,12.687880950865525,1.1223889,-7.893644835641026,-2.513638303860996,False,1.3101999999999991
mp-18971,Mn1 Pt3 O6,10,Orthorhombic,65,114.63192782000769,10.664274565314468,11.46319278200077,4.96911339,-6.895280270999999,-1.188962142793101,False,0.07339999999999901
mp-22576,Mn6 Sb12 O36,54,Trigonal,150,637.5161382173872,6.164615858177724,11.805854411433096,5.13601829,-7.213290068333334,-1.97909186810345,False,0.512
mp-1210700,Mn2 Sb4 Se8,14,Monoclinic,12,382.09506189337435,5.339330465061909,27.29250442095531,4.36097026,-18.115815240714287,-0.495499946533249,False,0.39280000000000004
mp-28669,Mn2 Se4 O12,18,Monoclinic,14,248.858487577255,4.121739039793437,13.825471532069722,0.39565042,-6.521447505555555,-1.427935919179836,False,1.5967
mp-28525,Mn15 Br6 O20,41,Cubic,225,557.5237931852873,4.835410503977954,13.59814129720213,1.92183149,-7.8331112934146425,-1.827961813145508,False,0.17069999999999902
mp-768472,Mn8 S12 O48,68,Monoclinic,14,811.9094366829172,3.2565239938498802,11.939844657101723,0.7064660700000001,-7.181558557941177,-1.880697302256591,False,0.6835
mp-28943,Mn8 B4 O16,28,Monoclinic,14,285.67116868791186,4.294114021467051,10.202541738853995,3.61528101,-8.758228763571427,-2.358904995718389,True,0.5381
mp-1221942,Mn2 Bi3 Sb3 O14,22,Trigonal,166,296.4240191410443,7.428623409162617,13.47381905186565,7.30555863,-6.985884530000001,-1.910766743448276,True,1.741699999999999
mp-504697,Mn8 Bi4 O20,32,Orthorhombic,55,370.1075747703095,7.158046439938833,11.565861711572172,4.23014289,-7.7546197721875,-1.885386032295258,False,0.416199999999999
mp-1221996,Mn4 Co2 O8,14,Tetragonal,141,151.7646126556744,5.094533182027652,10.840329475405314,3.21342297,-8.302297824285715,-1.838113349408867,False,0.6991
mp-1222018,Mn2 Cr3 Fe1 O8,14,Trigonal,166,160.00958678237947,4.666920621074745,11.42925619874139,3.20196413,-9.022415877857142,-2.212638574704433,False,1.7368000000000001
mp-1193329,Mn4 Cr2 Pb4 O18,28,Triclinic,2,364.1017331319365,6.569763526701929,13.003633326140589,2.70466445,-7.463013458928517,-1.753440513275807,False,1.386099999999999
mp-20223,Mn8 Ge4 O16,28,Orthorhombic,62,340.7937677956049,4.8046138325185765,12.171205992700175,2.8120628,-8.220307286785713,-2.114749792623151,True,1.0831
mp-24250,Mn4 H4 S2 O12,22,Monoclinic,15,212.74436607756013,3.74582840799705,9.670198458070915,2.13343458,-7.208841391818182,-1.850615113714733,False,2.7417
mp-1221883,Mn2 In1 Ag1 Te4,8,Tetragonal,121,267.1449043199302,5.23974738645677,33.39311303999128,3.71040906,-4.96101203125,-0.398591333857758,False,0.029300000000000003
mp-1222032,Mn4 In2 Sb2 O12,20,Triclinic,1,259.1892627319183,5.669265122616022,12.959463136595915,4.69897646,-7.513153205499999,-2.023156045752873,False,0.486299999999999
mp-18302,Mn4 Mo2 P24,30,Monoclinic,15,432.888968508543,4.430528056054093,14.4296322836181,8.64445358,-6.628800968666667,-0.351776768771755,False,0.1193
mp-27807,Mn8 O8 F36,52,Monoclinic,15,643.7735026321409,3.227949654591492,12.38025966600271,-3.1043031,-5.471142501923077,-1.9754021966047741,False,0.613499999999999
mp-1172875,Mn32 O48,80,Orthorhombic,61,889.1007007723838,4.717691499808666,11.113758759654797,3.43251628,-8.647502563375,-2.013919843547413,True,0.07210000000000001
mp-18721,Mn2 P2 O7,11,Monoclinic,12,125.22138674368266,3.763679967633767,11.383762431243879,3.4008564,-8.380768164090908,-2.5816131941043423,False,2.2949
mp-1192820,Mn4 Sb6 I6 O10,26,Triclinic,2,624.586534655181,4.976229227324467,24.02255902519927,2.9231701,-6.154581764615385,-1.537437366604774,False,2.017899999999999
mp-18928,Mn8 Si4 O16,28,Orthorhombic,62,324.0014486422718,4.140242289153002,11.571480308652564,3.61428526,-8.814470905714286,-2.594300529408867,True,1.988499999999999
mp-5056,Mn8 Si4 S16,28,Orthorhombic,62,559.7138450819633,3.15926686074833,19.98978018149869,4.70376317,-11.022951640714286,-0.9828901728879301,False,0.3536
mp-18607,Mn4 Te6 O16,26,Monoclinic,15,405.5074267121467,5.083255480268348,15.59643948892872,3.68655421,-6.9143807673076925,-1.7345625900663122,False,2.1851
mp-1210598,Mn4 Te2 O12,18,Tetragonal,136,192.58400823969285,5.750675794349236,10.699111568871825,4.03992174,-7.469453084999994,-1.785552806392076,False,0.5941999999999991
mp-19142,Mn2 V2 O7,11,Monoclinic,12,136.27935633163042,3.944894203488449,12.389032393784584,1.60123642,-8.786227804545454,-2.32008509916928,True,1.204
mp-1199415,Mn16 V8 H8 O40,72,Orthorhombic,62,874.8774349296987,3.671881269003745,12.151075485134704,3.5748824900000002,-8.268920564861112,-2.09748632954023,False,1.541799999999999
mp-18751,Mn4 Zn2 O8,14,Tetragonal,141,151.3335365601834,5.25115930992759,10.809538325727386,2.90165842,-7.607413516428571,-1.9823252001231522,False,0.728699999999999
mp-19185,Mn6 B4 O12,22,Orthorhombic,58,229.127310559627,4.093708924535419,10.414877752710318,3.41515292,-8.848231846818182,-2.4361777151933133,True,2.0333
mp-504423,Mn6 Co4 O16,26,Orthorhombic,31,255.4384001367044,5.339393644039572,9.824553851411707,2.94309733,-7.946916402307693,-1.690257374907162,False,0.8285
mp-558631,Mn6 P4 O16,26,Monoclinic,14,310.7749492482777,3.791088213118403,11.952882663395297,2.56757946,-8.54329887,-2.5509387956214473,False,2.9497
mp-542161,Mn6 Ag4 P8 O28,46,Triclinic,2,570.4981704910543,4.240498786856391,12.402134141109878,2.55615357,-7.709210031086956,-2.313328752639036,False,1.7732
mp-18870,Mn3 Cd2 O8,13,Monoclinic,12,146.56131453997776,5.8647608105981615,11.273947272305982,1.7979913600000001,-7.051648147692309,-1.744743971061009,False,1.214799999999999
mp-24178,Mn6 H4 Se6 O20,36,Triclinic,2,535.5373773832061,3.495750543054909,14.876038260644615,2.6867622,-6.8304307627777785,-1.594668360740243,False,0.181599999999999
mp-31908,Mn6 Nb12 O22,40,Trigonal,164,497.0086128960751,6.002198869456395,12.425215322401877,4.76700897,-9.576838796249998,-2.450766437689654,False,0.240599999999999
mp-18759,Mn6 O8,14,Tetragonal,141,155.5144237875321,4.886374081713801,11.108173127680866,3.2345749,-8.804393511428572,-2.050409240541872,False,0.8134999999999991
mp-1202942,Mn6 P6 Pb2 O24,38,Orthorhombic,74,496.81946512818007,4.391353606248485,13.074196450741582,3.59702664,-8.109508914473684,-2.48736967330114,False,0.8563000000000001
mp-1193915,Mn6 Sb4 I8 O8,26,Orthorhombic,64,746.6707601916463,4.358667047814938,28.718106161217165,2.42225467,-6.191563339230769,-1.450644659522546,False,1.6919
mp-1196009,Mn6 Sb10 I6 O18,40,Triclinic,2,837.3456849674865,5.149401690385787,20.933642124187163,4.41676036,-6.522327738749993,-1.660590790439648,False,0.7864000000000001
mp-554429,Mn12 Si4 O16 F8,40,Orthorhombic,62,503.414915356313,3.89089048667272,12.585372883907825,2.29080622,-8.374279545250001,-2.7211882776293113,True,2.6069
mp-18795,Mn6 Te2 O12,20,Trigonal,148,241.80205818153007,5.33470121881512,12.090102909076503,3.96112076,-7.951964359,-1.920252579045977,False,0.7581999999999991
mp-17899,Mn6 V4 O16,26,Orthorhombic,64,303.38857642765294,4.320545284020368,11.668791401063574,2.15501215,-8.837571938461538,-2.280837626445622,True,1.8537999999999992
mp-1403705,Mn3 Zn2 O8,13,Monoclinic,12,132.46367924277024,5.310510348711602,10.189513787905403,2.02563974,-7.176852596923078,-1.823835586445624,False,1.229899999999999
mp-559323,Mn4 Bi3 N1 O15,23,Trigonal,143,292.27859474623426,6.25341907157125,12.707764988966707,4.40218194,-7.337576988695652,-1.647322340074963,True,1.123899999999999
mp-31901,Mn8 Nb4 O18,30,Trigonal,165,348.8992460447404,5.231109530547419,11.629974868158012,3.5382286,-9.300369227000001,-2.541547874114944,False,0.015499999999999
mp-680339,Mn16 Si28,44,Tetragonal,116,510.61957031234266,5.415903421974765,11.604990234371424,9.77242132,-11.205978175909092,-0.28327900617555,False,0.755599999999999
mp-1222033,Mn8 Zn6 Ni4 O24,42,Monoclinic,15,454.8133214866442,5.296619666082868,10.828888606824862,3.16661878,-7.094650248809524,-1.7916456098440061,False,0.3174
mp-16185,Mn12 Ag2 P14 O48,76,Monoclinic,11,936.6969794435381,3.681308044047892,12.324960255836027,5.00167858,-8.147277098421052,-2.503213723993497,False,2.309199999999999
mp-1197400,Mn28 Pb12 O60,100,Orthorhombic,36,1258.9494393404163,6.574665637949677,12.589494393404163,4.33066631,-7.8144884029,-1.834829869720689,False,0.160199999999999
mp-653429,Mn14 Fe2 Cl6 O20,42,Cubic,225,594.6376962754468,3.947310314456254,14.158040387510638,1.97178991,-7.9808876611904775,-1.9032996476436792,False,0.9382
mp-1172871,Mn28 Ge4 O48,80,Tetragonal,142,901.4768289980244,4.783353083663155,11.268460362475306,3.26321591,-8.458824425,-2.052191077025861,False,0.5022000000000001
mp-3224,Mn28 Si4 O48,80,Tetragonal,142,876.8759400705213,4.580059544277464,10.960949250881516,3.66410553,-8.683616215250002,-2.236868358525862,False,0.3909
mp-25773,Mn16 Cl6 O20,42,Tetragonal,139,564.1271281329477,4.155459517099879,13.431598288879709,2.05883541,-8.043707264285743,-1.933166274449946,False,0.454499999999999
mp-1211361,Mn2 Ag4 Ge2 Se8,16,Orthorhombic,31,420.7279540140976,5.203132791166355,26.2954971258811,1.9561895900000001,-4.672913405,-0.491092853204921,True,0.0088
mp-996995,Mn1 Ag1 O2,4,Monoclinic,12,50.02428543740265,6.466486922597943,12.506071359350663,2.75576796,-6.906668847500001,-1.431450102399425,False,0.28949999999999904
mp-755882,Mn2 Al4 O8,14,Cubic,227,137.169769855266,4.186127644323647,9.797840703947571,5.39059045,-8.25418014642857,-3.047750007561575,True,2.6578
mp-1210817,Mn4 Al4 Si4 O20,32,Orthorhombic,58,380.1794153094489,3.319547243728507,11.880606728420279,2.79650546,-8.320165787812499,-2.936076515678879,False,1.7544
mp-29108,Mn2 As4 F24,30,Tetragonal,122,421.8739401493608,3.406791828736739,14.06246467164536,-1.9259830900000001,-5.309964559333334,-2.545398635528736,False,2.7681
mp-24550,Mn4 As4 H8 O20,36,Monoclinic,15,403.8105128125571,3.485026701768867,11.216958689237696,0.43869081,-6.703176932777778,-1.6629240742145601,False,2.2527
mp-695994,Mn8 As8 H24 O40,80,Monoclinic,4,903.125717162663,3.131314473108335,11.289071464533288,2.80017047,-6.50106107375,-1.625316857168104,False,2.1119
mp-19882,Mn4 B4 Pb4 O16,28,Orthorhombic,62,362.89575246259017,6.167204367485452,12.96056258794965,4.128469649999999,-7.837574336428572,-2.216731743156814,False,0.910899999999999
mp-1095372,Mn1 Bi4 S7,12,Monoclinic,12,296.4700776028812,6.246915555688482,24.7058398002401,5.06148837,-25.946748490833333,-0.535296554930856,False,0.421799999999999
mp-554839,Mn4 Bi4 As4 O20,32,Triclinic,2,466.3865579668446,5.964968448436672,14.574579936463893,3.54848991,-7.1796273509375,-1.87188020599138,False,1.9431999999999992
mp-560153,Mn4 Bi4 P4 O20,32,Monoclinic,14,447.5448643561382,5.563850451201418,13.985777011129318,3.51231277,-7.7494456753125,-2.3485296562592373,False,2.779
mp-558130,Mn4 Bi4 S8 Cl4,20,Orthorhombic,62,458.31845752226354,5.268025673251268,22.91592287611318,4.77803921,-5.5734460760000015,-0.937983768586207,False,0.8539999999999991
mp-28306,Mn1 Br2,3,Trigonal,164,84.15411109132559,4.237394852087011,28.051370363775195,0.48199909,-5.314335840000001,-1.169033052643679,False,1.5962
mp-1221733,Mn1 Cd4 Te5,10,Tetragonal,82,345.37810859986405,5.493405850792727,34.53781085998641,2.8002762,-22.799138815,-0.580198116448278,True,0.5243
mp-1221646,Mn1 Cd1 Se2,4,Trigonal,156,109.18521570947995,4.946841501099655,27.296303927369987,2.05256773,-5.002262762499999,-0.723800653154632,True,0.20550000000000002
mp-1221650,Mn1 Cd1 Te2,4,Trigonal,160,134.83605473224907,5.203795069281301,33.70901368306227,2.99262948,-21.999529325,-0.5938365786206921,False,0.39840000000000003
mp-28233,Mn1 Cl2,3,Trigonal,166,71.61195211117794,2.918073685479806,23.870650703725982,0.9050167100000001,-10.579209736666668,-1.5831389131609201,False,1.792599999999999
mp-28226,Mn2 Cr4 O8,14,Cubic,227,151.07905148966802,4.9004860965885175,10.791360820690572,3.54060299,-9.23133015,-2.337050971133004,True,2.2026
mp-1221753,Mn1 Cr4 Cd1 Se8,14,Cubic,216,313.9316057148115,5.32659068272671,22.423686122486536,3.74491063,-6.287045775714285,-0.8083666911915011,False,0.546899999999999
mp-20474,Mn2 Cu4 Ge2 S8,16,Orthorhombic,31,308.17015181966735,4.126748134059976,19.26063448872921,4.87580437,-5.467074093125,-0.6499622484913791,False,0.26480000000000004
mp-1210824,Mn2 Cu4 Si2 Se8,16,Orthorhombic,31,353.863375850466,4.9361973539553805,22.116460990654126,3.77859493,-5.16433249125,-0.5681584196632531,False,0.4495
mp-510589,Mn1 Cu1 O2,4,Monoclinic,12,45.97085781258352,5.435675009466814,11.49271445314588,3.72212939,-7.329014053750001,-1.539728060732759,False,0.17869999999999903
mp-556585,Mn4 F8,12,Orthorhombic,60,153.74209755521997,4.015086403850772,12.811841462934998,0.9521513300000001,-7.296873797500001,-2.966967116810346,True,2.3648
mp-556560,Mn2 F6,8,Monoclinic,15,114.00641645002693,3.2606856333644583,14.250802056253367,-1.64994819,-6.490724162499999,-2.764831058232758,False,0.49360000000000004
mp-541103,Mn8 F32,40,Tetragonal,88,470.44652027232013,3.697204650692276,11.761163006808003,-2.93513043,-5.760018024500001,-2.396533066086208,False,1.3254000000000001
mp-1221879,Mn4 Fe4 Bi4 O20,32,Orthorhombic,55,390.9003228390218,6.7927069630717085,12.21563508871943,4.24732536,-7.537358584375,-1.7546241047413802,False,0.37319999999999903
mp-1221609,Mn1 Ga1 Cu2 Se4,8,Tetragonal,82,179.27696545028607,5.257286806398516,22.40962068128576,3.12153024,-4.9315712575,-0.6350499368507531,False,0.0344
mp-20798,Mn2 Ge2 O6,10,Trigonal,148,104.25051788767347,5.593280875660874,10.425051788767346,3.4436629,-7.861668011000001,-2.135882778586207,False,1.6731999999999991
mp-731052,Mn4 H8 Se8 O32,52,Monoclinic,14,706.241100217721,3.224664079266638,13.581559619571559,-0.08406981,-6.117498749615384,-1.307663429239887,False,2.2486