material_id,composition,nsites,crystal_system,space_group,volume,density,density_atomic,efermi,energy_per_atom,formation_energy_per_atom,is_gap_direct,band_gap
mp-7447,Rb4 Se6,10,Orthorhombic,36,344.375349990818,3.932881582767029,34.4375349990818,0.94739657,-3.5699436760000003,-1.080183160406249,False,0.681199999999999
mp-27829,Rb2 Se1 Cl6,9,Cubic,225,255.67956470480908,3.004494928749449,28.408840522756563,-0.5839137600000001,-3.3728376499999992,-1.534144714149305,False,2.6051
mp-1209497,Rb8 Si8 Se20,36,Monoclinic,15,1175.4756498302484,3.514152607841813,32.65210138417356,2.90030763,-4.4621628330555545,-1.096467100468747,True,2.3052
mp-6960,Rb4 Si2 As4,10,Orthorhombic,72,325.3647983564221,3.560943298220373,32.53647983564221,2.18882499,-3.7810945080000042,-0.435768260000004,False,0.9554999999999991
mp-12016,Rb4 Si2 S6,12,Monoclinic,12,360.35161903935955,2.720775160917192,30.029301586613297,0.80613455,-4.675886325833333,-1.3756421795833331,False,2.8274
mp-643359,Rb2 Sn1 H12 N6,21,Trigonal,147,228.47896461685852,2.8037791381337183,10.879950696040883,0.56036336,-4.9997441528571445,-0.39296778452380804,False,2.5357000000000003
mp-1201043,Rb16 Sn16 H24 N8,64,Monoclinic,14,1690.2272414989548,3.343315044540216,26.409800648421168,1.866014579999999,-3.9855007646875,-0.42250215015624903,False,1.157
mp-7863,Rb2 Sn2 O3,7,Trigonal,166,163.00732696593104,4.648829762417636,23.286760995133005,3.00817634,-5.266734521428573,-1.720435254285714,True,1.219599999999999
mp-9322,Rb4 Sn4 Se10,18,Monoclinic,15,580.6879762444926,4.593417824780428,32.260443124694035,1.58625829,-4.042109542777776,-0.991024071302082,False,0.843299999999999
mp-1194540,Rb4 Sn6 Sb4 S20,34,Monoclinic,14,1016.4294314918321,3.5654995585972493,29.894983279171534,4.03545369,-4.591879933235295,-0.848857470588234,False,1.8255
mp-2646944,Rb8 Sn12 O28,48,Orthorhombic,62,743.2006383492452,5.71143976955206,15.483346632275941,3.468590599999999,-6.103638584374999,-2.051512688958332,False,1.450599999999999
mp-1220891,Rb16 Sn32 S72,120,Orthorhombic,19,3923.2281374891477,3.163807403940159,32.69356781240956,1.27074563,-4.589426941333333,-0.906454163166666,False,1.6693
mp-8931,Rb4 Sn2 As4,10,Orthorhombic,72,368.92595766959823,3.9562861141190613,36.89259576695982,1.940236469999999,-3.469405326,-0.407228313,False,0.680999999999999
mp-569028,Rb2 Sn1 Br6,9,Cubic,225,313.37459192801026,4.075219078475288,34.819399103112254,-0.39104144,-3.326071186666665,-1.5713690522222201,True,1.3166
mp-23059,Rb2 Sn1 Cl6,9,Cubic,225,262.376642392241,3.179377462231311,29.15296026580456,-0.59115021,-3.78423212111111,-1.8884658099999991,True,2.5452
mp-27931,Rb8 Sn4 O8,20,Orthorhombic,19,488.3903048011634,4.374395531627636,24.419515240058168,1.9504530500000001,-4.817467049499998,-1.644154647499998,False,2.225199999999999
mp-753798,Rb4 Sn2 O6,12,Orthorhombic,36,230.706998435881,4.8604569804682445,19.225583202990084,1.41725868,-5.392299724166668,-1.923212555000001,True,2.121299999999999
mp-9145,Rb4 Sn2 Se6,12,Triclinic,2,446.87085772181325,3.9130603988022212,37.239238143484435,0.42870755,-3.880631026666665,-1.137568621171873,False,1.6655
mp-28520,Rb4 Sn2 Te10,16,Tetragonal,140,609.7863396765872,5.052234392710652,38.1116462297867,3.51746169,-3.510679401250001,-0.7997832179166671,False,0.6872
mp-510558,Rb4 Sr2 V8 O24,38,Tetragonal,125,712.9326808959115,3.048014636314787,18.761386339366094,-1.10768235,-7.790434358684211,-2.560715802105264,True,2.799699999999999
mp-1209302,Rb2 Tc1 Cl6,9,Cubic,225,251.0246672442523,3.186159464521082,27.89162969380581,-0.15097309,-4.365861044444442,-1.764420612222219,True,1.2635
mp-1206836,Rb2 Tc1 I6,9,Cubic,225,376.062571444062,4.549660564720718,41.78473016045133,1.79052503,-3.379487578888886,-0.99440060333333,False,0.544999999999999
mp-441,Rb2 Te1,3,Cubic,225,156.9269235634012,3.158986458882483,52.308974521133734,-0.08341552,-2.839231656666667,-1.1377736438888881,False,1.8766
mp-1070356,Rb2 Te2 Pd1,5,Orthorhombic,71,178.43258673765905,4.956097958927144,35.68651734753181,2.4759634200000002,-3.655469976,-0.969957627666666,False,0.5711
mp-2095,Rb8 Te12,20,Orthorhombic,62,837.204042658343,4.393192337903853,41.86020213291715,2.44308638,-3.2368299855,-0.9586328204999991,False,0.6694999999999991
mp-570324,Rb2 Te1 Br6,9,Tetragonal,87,320.7435504196711,4.027617410689114,35.638172268852344,-0.27549955,-3.07293481111111,-1.414484450185184,False,2.101
mp-22975,Rb2 Te1 Cl6,9,Cubic,225,272.0293137024736,3.120827546800409,30.22547930027484,0.22244432,-3.481089077777776,-1.681574540185184,False,2.6398
mp-28070,Rb4 Te2 I12,18,Tetragonal,128,806.8840467017882,4.362730964213464,44.826891483432675,0.9795916100000001,-2.612818761111109,-1.029657680185183,False,1.6225
mp-1077942,Rb2 Te1 Se4,7,Monoclinic,12,233.25498978427916,4.373731452901907,33.322141397754166,1.74411352,-3.62276764142857,-0.8959076487202371,False,0.9114999999999991
mp-1209316,Rb4 Ti2 Ag4 S8,18,Tetragonal,132,492.75126451057815,3.79319057484976,27.375070250587676,1.76571068,-4.773706643333333,-1.207498444629628,False,1.5994000000000002
mp-7129,Rb4 Ti2 Cu4 S8,18,Tetragonal,132,414.37634118325275,3.800179492196923,23.020907843514042,2.9112271,-5.121347675000001,-1.27596858925926,False,1.660299999999999
mp-1540553,Rb2 Ti1 Te3 O12,18,Trigonal,166,259.0698392807299,5.086644467888368,14.39276884892944,3.79464637,-6.369507268888889,-1.999395607685185,False,1.6461000000000001
mp-540784,Rb2 Ti6 O13,21,Monoclinic,12,274.1724762156519,4.034447846823284,13.055832200745328,1.54027681,-8.744361006666667,-3.3320984680952392,False,2.6235
mp-27827,Rb2 Ti1 Cl6,9,Cubic,225,249.46613104063155,2.872361115128543,27.718459004514617,-0.66329505,-4.53966988111111,-2.212134663148147,False,2.1471
mp-19481,Rb8 V4 P8 O32,52,Orthorhombic,19,822.754310744527,3.324651829698773,15.822198283548595,0.5020485,-7.398567987884615,-2.6709057335989,False,2.9669
mp-1219801,Rb4 V4 Si16 O42,66,Orthorhombic,26,1040.859897817329,2.659421713763312,15.770604512383773,4.16540646,-8.119463022121211,-3.045565881818182,False,2.913299999999999
mp-510519,Rb4 V6 O16,26,Tetragonal,100,443.50453743873965,3.382862004189621,17.057866824566908,0.13071105,-7.744054460000001,-2.452017968076925,False,2.0914
mp-8901,Rb4 V2 Ag2 S8,16,Orthorhombic,70,476.9606297629563,3.189092121661404,29.810039360184767,-0.51548432,-5.011238655,-1.206069884583332,False,1.3323
mp-14635,Rb4 V2 Ag2 Se8,16,Orthorhombic,70,525.3403261103164,4.081238611206736,32.83377038189477,0.70622494,-4.5870133993749995,-1.103068673880207,False,1.0307
mp-15219,Rb4 V2 Cu2 S8,16,Orthorhombic,70,429.2400461153299,3.200712305196358,26.82750288220812,1.4687078,-5.241784785,-1.279582390624999,False,1.2439
mp-2046810,Rb2 V1 F6,9,Tetragonal,139,153.23073431545075,3.639747204274727,17.025637146161195,-0.25916697,-5.608650837777778,-3.105529897222222,True,0.7661
mp-1110786,Rb2 Y1 Ag1 F6,10,Cubic,225,187.5561005404331,4.2647601490205105,18.75561005404331,-0.30861457000000003,-5.4665042820000025,-3.186883124666669,False,2.8977
mp-29606,Rb4 Zn6 O8,18,Monoclinic,15,278.53730697582364,5.140843528908052,15.474294831990202,0.88870687,-4.514962142777778,-1.678057365555555,True,1.4122
mp-1189283,Rb4 Zn6 S8,18,Orthorhombic,72,432.2820017270664,3.806166245597984,24.0156667626148,1.09099582,-3.658324309444444,-1.181242393333333,True,2.5887000000000002
mp-1192151,Rb4 Zn10 As8,22,Orthorhombic,63,485.62947632428927,5.455011609522322,22.07406710564951,2.56986583,-2.772223058636364,-0.32310702909091005,False,0.10159999999999901
mp-1209800,Rb16 Zn8 Ge8 O32,64,Orthorhombic,29,1097.8980052074273,4.512998557671298,17.154656331366052,0.10436998,-5.460336463906249,-2.005876010156249,False,2.8121
mp-555977,Rb16 Zn8 O16,40,Monoclinic,14,842.7535165096676,4.229893464554022,21.068837912741692,0.46067515000000003,-4.1717790025,-1.5484322495,False,1.792399999999999
mp-558772,Rb16 Zr8 S32,56,Orthorhombic,61,1603.4062634015183,3.234648699904693,28.63225470359854,2.37473169,-5.424676569821429,-1.558646991964285,True,1.9971
mp-29603,Rb8 Zr4 Te12,24,Monoclinic,14,956.4345905009168,4.479054282709708,39.85144127087153,2.22541238,-4.554260640833334,-1.231146231666667,False,0.49849999999999905
mp-553907,Rb48 Ag16 O32,96,Orthorhombic,19,2498.712467028814,4.2135138881003265,26.02825486488348,2.46998406,-3.741246790520833,-1.127836472881943,True,1.5162
mp-571164,Rb6 Ag2 Sn6 Se16,30,Tetragonal,125,978.1558057564332,4.590647634698186,32.60519352521444,2.12949737,-3.969902786999999,-0.917866301527776,True,1.3666
mp-14951,Rb6 Al2 O6,14,Monoclinic,12,272.67251049111314,4.036157855932871,19.47660789222237,1.0411919,-5.2688240978571415,-2.192958231785713,True,2.651399999999999
mp-542233,Rb12 As44,56,Orthorhombic,60,1903.495604460162,3.770495795963541,33.99099293678861,1.89899316,-4.147037798928573,-0.26754136500000303,False,1.553599999999999
mp-680413,Rb48 As112,160,Orthorhombic,61,5862.779529256382,3.538634361845165,36.64237205785239,1.8646224500000002,-3.9199937003125003,-0.35674770581250104,True,1.5816
mp-18305,Rb12 As4 Se16,32,Orthorhombic,62,1130.7926849530415,3.801378552712571,35.33727140478255,0.49364405,-3.754620933124998,-1.0551996005468731,True,1.3144
mp-9718,Rb6 B2 As4,12,Monoclinic,15,420.14120146464467,3.296703276937308,35.01176678872039,0.87985452,-3.485262458333332,-0.32505594944444305,False,1.2941
mp-9720,Rb6 B2 P4,12,Monoclinic,15,393.3563659845879,2.779089300721452,32.77969716538232,1.14228097,-3.782510663333333,-0.37385382349206303,False,1.5859
mp-29977,Rb12 B4 S12,28,Monoclinic,14,848.2608672904679,2.8456128492511312,30.295030974659568,0.78551673,-4.390106014642858,-1.242095630238095,True,2.5462
mp-755428,Rb12 Cl4 O4,20,Orthorhombic,62,591.9812829791914,3.4542077425604383,29.59906414895957,1.11036698,-3.541824264000001,-1.594203059500002,False,1.223399999999999
mp-1113630,Rb3 Co1 F6,10,Cubic,225,174.1918711196276,4.092695456128568,17.41918711196276,-2.13062895,-4.82816219299999,-2.67234887424999,True,2.9106
mp-8198,Rb12 Cu20 O16,48,Monoclinic,14,993.48557951547,4.266358674779433,20.697616239905624,1.7312888,-4.685551208749992,-1.083094576458324,True,1.580299999999999
mp-28568,Rb12 Cu4 O8,24,Monoclinic,14,567.9270816999009,4.116188534417284,23.663628404162537,1.53190475,-4.0606262425,-1.237837759583333,False,1.4422000000000001
mp-555287,Rb12 Fe4 O12,28,Monoclinic,12,560.3495552010497,4.270217026907012,20.012484114323204,2.32648239,-5.338097818928571,-1.587311184285714,False,0.49190000000000006
mp-13744,Rb6 Ga2 O6,14,Monoclinic,12,281.0113696613671,4.421518708120131,20.07224069009765,0.57973211,-4.803311777857141,-1.8299430271428552,True,2.4181
mp-29363,Rb48 Ga16 P32,96,Orthorhombic,61,3468.001643669879,2.973063926688732,36.125017121561235,1.47052816,-3.19953486,-0.399427311547619,True,1.1643
mp-861898,Rb6 Ge2 P2 Se14,24,Triclinic,2,825.7434008695294,3.670960527065935,34.405975036230394,0.62670043,-4.0744187,-0.9534617048790921,True,1.5629
mp-1198991,Rb6 H24 N10,40,Cubic,199,490.15383442189426,2.293752984118869,12.253845860547356,-0.27580546,-4.696274502249999,-0.42752509187499904,True,1.7749000000000001
mp-29019,Rb18 I6 O6,30,Hexagonal,194,1065.86433420431,3.732550007355596,35.52881114014367,1.72809846,-3.285031565666666,-1.402316398166666,True,0.633999999999999
mp-1203699,Rb12 I4 O20,36,Orthorhombic,52,746.4926928756631,4.122402502922696,20.735908135435086,0.98516277,-4.7381810188888895,-1.493134368055556,True,1.3488
mp-2754174,Rb12 I4 O20,36,Orthorhombic,63,697.5541139359481,4.411619520326862,19.376503164887446,0.96783929,-11.96229514638889,-1.273809634305556,True,1.9552
mp-1192770,Rb3 In1 I6 O18,28,Triclinic,2,516.6558505602633,4.56594836354935,18.451994662866547,1.82698706,-4.950734658214286,-1.239729310327381,True,2.9749
mp-849527,Rb12 In4 O12,28,Monoclinic,14,623.4153925546462,4.466559739128706,22.26483544838022,0.8780398500000001,-4.575952750000001,-1.641001467738096,False,2.2405
mp-541766,Rb24 In8 P16,48,Triclinic,2,1695.9107144238494,3.393074480260956,35.33147321716353,2.1136281,-3.07352893375,-0.31824176515872904,False,0.507099999999999
mp-22303,Rb6 In2 S6,14,Monoclinic,12,478.56574118722125,3.243705621902788,34.18326722765866,0.56664559,-3.844490502142857,-1.256511264523808,False,2.2673
mp-1209364,Rb6 Mn2 Br10,18,Tetragonal,140,651.3304499286181,3.624621574168975,36.18502499603434,2.02369217,-4.014596793888889,-1.7603356622701152,False,2.676999999999999
mp-553971,Rb12 Mn4 O12,28,Monoclinic,14,570.1324469348978,4.186378248833895,20.36187310481778,1.49588902,-5.504809907857143,-1.655166975775862,True,1.3497
mp-560115,Rb6 Mo24 P2 O80,112,Cubic,224,1742.5476264769375,3.961615187080763,15.558460950686941,0.31349952000000003,-8.083263209553571,-2.075703972716836,False,2.2651
mp-29458,Rb6 Mo4 Cl18,28,Hexagonal,194,779.2657901664667,3.270339692673026,27.83092107737381,1.83522121,-4.725900291428572,-1.778058317321429,False,0.10070000000000001
mp-12046,Rb3 Na1 Ru2 O8,14,Trigonal,164,269.1207673619667,3.760934837217887,19.222911954426195,1.26113884,-6.163807442142857,-1.7055348624199511,True,0.5102
mp-683902,Rb6 Nb4 As2 Se22,34,Monoclinic,9,1085.4299446944678,4.239804284426313,31.924410138072584,1.23770542,-4.9364453576470595,-1.038247646810662,False,1.181199999999999
mp-541745,Rb12 Nb8 S44,64,Monoclinic,14,1818.6691327880155,2.903253203432504,28.416705199812743,1.6311786,-5.47074990484375,-1.1791144335937491,False,1.5349
mp-667344,Rb18 Nb30 P12 O114,174,Trigonal,167,2756.993837687602,3.927739921472415,15.844792170618403,1.12728572,-8.382773855689654,-2.924486491440886,False,2.8451999999999993
mp-559037,Rb6 Nb12 S2 Br34,54,Monoclinic,15,1657.0386932701674,4.417862098842893,30.68590172722532,2.06976789,-5.044778225555555,-1.507152924814814,False,0.5826
mp-9808,Rb3 Nb1 O8,12,Tetragonal,121,201.79231382161697,3.9277193019025,16.816026151801413,0.57743469,-6.064865215833332,-1.679315607708331,False,2.3443
mp-3719,Rb12 Nb4 S16,32,Orthorhombic,62,1050.914519769567,3.018412104122237,32.84107874279897,0.21300146,-5.1844512703125,-1.484908079374999,True,2.4982
mp-1196286,Rb12 Ni8 N28 O84,132,Orthorhombic,62,1816.0212673904514,2.9546441229384572,13.757736874170087,-0.06896493000000001,-6.513531442045454,-1.156652626969697,True,2.9288
mp-1197062,Rb12 P44,56,Orthorhombic,60,1698.986001005808,2.334409870754321,30.339035732246572,1.56369489,-4.782478349285713,-0.317348992397957,False,1.9328
mp-1200086,Rb24 P24 H40 N8,96,Orthorhombic,61,1962.662032024637,2.493326183837604,20.4443961669233,1.23295326,-4.144673933229167,-0.43616287220238004,True,2.135599999999999
mp-16863,Rb12 P4 S16,32,Orthorhombic,62,963.2921681084001,2.86592902083716,30.102880253387504,0.81991622,-4.3585486465625,-1.244734394955356,True,2.8787000000000003
mp-8201,Rb6 Pd2 F10,18,Tetragonal,127,352.18189516947626,4.317203092986361,19.56566084274868,-1.50878836,-4.464464253888889,-2.498825820277778,False,2.3374
mp-1113824,Rb3 Rh1 F6,10,Cubic,225,189.1985572070366,4.154006358868541,18.91985572070366,-0.02206588,-4.773773792999998,-2.5948713592499972,True,2.182899999999999
mp-16319,Rb6 Sb2,8,Hexagonal,194,396.5647708918155,3.166973696862201,49.57059636147694,1.02919015,-2.16332574375,-0.395674879375,False,0.0878
mp-1194576,Rb12 Sb8 Br36,56,Monoclinic,14,2050.9431102852063,3.948029076095543,36.623984112235824,2.07565834,-3.3608570382142853,-1.508562501607142,True,2.149
mp-1209693,Rb12 Sb8 I36,56,Monoclinic,7,2676.7916230801434,4.074595547815445,47.79985041214542,2.7986728100000002,-2.893948852857143,-1.114254693392857,True,1.9237000000000002
mp-556234,Rb12 Sb20 O56,88,Orthorhombic,55,1309.6279750149586,5.524166811188433,14.882136079715439,3.57373939,-6.193842511136363,-1.9730214889772721,False,1.433799999999999
mp-1193319,Rb12 Sb4 S12,28,Cubic,198,968.2912324007902,3.253941080585277,34.58182972859965,0.9466232,-3.9642714596428563,-1.180602579642856,False,2.4154
mp-17154,Rb12 Sb4 S16,32,Orthorhombic,62,1067.9222101148443,3.149801856260538,33.372569066088886,0.47671372,-4.091106663125,-1.138101447187499,True,2.022799999999999
mp-17912,Rb12 Sb4 Se12,28,Cubic,198,1077.3112817200229,3.792046405469322,38.47540291857224,0.57391061,-3.663710524999999,-1.15537654064732,False,1.9999999999999991
mp-17638,Rb12 Sb4 Se16,32,Orthorhombic,62,1194.1610095824378,3.86018216574059,37.31753154945118,0.49747008000000004,-3.730256596562506,-1.098475425546881,False,1.444799999999999
mp-1209523,Rb6 Sc4 Br18,28,Hexagonal,194,961.3806562338044,3.680588681573219,34.33502343692159,-0.75202656,-4.29641416642857,-2.129338506249998,True,2.929699999999999
mp-570167,Rb12 Sn4 P12 Se44,72,Monoclinic,14,2346.391401897645,3.783627387174985,32.58876947080063,1.24651303,-4.21731153861111,-0.792165932900544,True,0.8838
mp-6390,Rb12 Ti12 P20 O80,124,Orthorhombic,29,1785.8971597170857,3.253807105641141,14.402396449331336,1.11044531,-7.906047083387097,-2.981380438410138,False,2.5989999999999993
mp-505639,Rb12 Ti12 Te44,68,Monoclinic,14,2548.9555812967383,4.699894480496234,37.48464090142262,3.69054547,-4.594353368235294,-0.9940920097549001,False,0.0809
mp-1190911,Rb3 V5 O14,22,Trigonal,157,348.16720829585125,3.505977559403235,15.825782195265965,-0.66457689,-7.756714538181833,-2.4097787819318333,False,2.2424
mp-505721,Rb12 V4 S16,32,Orthorhombic,62,986.8618923441863,2.931875106998694,30.839434135755823,1.2144498400000001,-4.996664470937499,-1.424296151249998,True,1.7482000000000002
mp-561527,Rb6 Zr4 P10 S36,56,Monoclinic,9,1590.9226612283207,2.444253242207656,28.409333236220014,1.03113163,-5.447978001071433,-1.104947882525513,False,1.8916
mp-1209505,Rb6 Zr12 Be2 Cl30,50,Monoclinic,15,1409.9909776163308,3.166949925256279,28.199819552326616,2.45432972,-5.5184117650000015,-2.090597330500001,False,0.9403
mp-29449,Rb16 Cu20 Cl36,72,Monoclinic,7,2084.273474999692,3.118848662083574,28.948242708329058,1.45241635,-3.699705306111111,-1.4188689261111112,False,1.903299999999999
mp-557618,Rb4 Cu1 Si2 O7,14,Triclinic,2,271.31421418061694,3.510537193390951,19.379586727186926,1.5431214400000002,-6.218838871428572,-2.3968598675,False,0.7041000000000001
mp-828605,Rb16 Fe4 O16,36,Monoclinic,14,731.7732788024144,4.1908816552748345,20.32703552228929,1.24017014,-5.102746711111111,-1.526746542222222,True,0.581499999999999
mp-1195703,Rb8 Ge2 P8 S24,42,Monoclinic,15,1230.638390519272,2.491368451304411,29.300914059982667,3.02254356,-4.760440195714286,-0.9572319549319721,True,2.1162
mp-1195251,Rb16 Ge4 P16 Se48,84,Orthorhombic,29,2731.1372765741,3.613789180140341,32.51353900683452,1.2611831900000001,-4.245129339642857,-0.809034293056973,True,1.3687
mp-759330,Rb16 Ge36 H60 N20,132,Monoclinic,14,2432.633896344055,2.951013262037641,18.429044669273143,0.55268984,-4.507520622954545,-0.321209341401515,True,2.0492
mp-18464,Rb16 Ge4 O16,36,Monoclinic,14,752.7442445906879,4.222324178879364,20.909562349741332,0.49577481,-5.044593013888889,-1.8960365511111101,False,2.8624
mp-760417,Rb4 I2 O1,7,Tetragonal,139,282.7512493959481,3.592266257283858,40.39303562799258,1.858989789999999,-3.20051873857143,-1.497929806428573,True,0.6163000000000001
mp-1219602,Rb4 In1 Sb1 Cl12,18,Tetragonal,123,568.4322603868061,2.932610812495411,31.57957002148923,-0.30437342,-3.639275390555555,-1.80634067537037,True,1.033599999999999
mp-1219636,Rb8 Mn2 As4 S16,30,Triclinic,2,878.3927756620562,3.036680763076433,29.27975918873521,2.75369924,-4.675583560333333,-0.9734986811954011,False,1.082099999999999
mp-556467,Rb16 Nb8 S40 O4,68,Orthorhombic,29,1947.8833302151402,2.9473208966516893,28.64534309139912,2.20745276,-5.521095783088235,-1.376607368382353,True,1.631099999999999
mp-31279,Rb8 P42 I2,52,Orthorhombic,63,1485.4046419738022,2.502370383990424,28.56547388411158,2.20606909,-4.904888723653846,-0.321385149134614,False,1.3468
mp-569862,Rb8 P4 Se18,30,Monoclinic,15,1004.1805965017481,3.685795674128952,33.47268655005827,0.61056542,-4.026212540333335,-0.9451267643586331,True,1.4612
mp-860956,Rb16 Sb8 O20,44,Orthorhombic,62,1026.4570402916333,4.30569641858848,23.328569097537123,1.22345614,-5.184121464545456,-1.827762937727273,False,2.4371
mp-768813,Rb16 Si4 O16,36,Monoclinic,14,711.3322558395425,4.052103991368016,19.75922932887618,0.97265647,-5.4854418725,-2.247742056944444,False,2.7076000000000002