material_id,composition,nsites,crystal_system,space_group,volume,density,density_atomic,efermi,energy_per_atom,formation_energy_per_atom,is_gap_direct,band_gap
mp-555322,Eu8 Si4 Cl8 O12,32,Tetragonal,87,608.0856271061555,4.925401445416529,19.00267584706736,5.07113269,-8.724826341875,-3.1570140675,False,0.642799999999999
mp-554546,Eu8 Si4 O16,28,Monoclinic,14,387.5074227678318,6.787915417570968,13.839550813136851,6.11997108,-9.892466269285718,-3.350554000714289,False,0.28889999999999905
mp-22504,Eu4 Si2 S8,14,Monoclinic,11,332.0144346289989,4.60402951410691,23.715316759214208,5.02947862,-18.61798827785714,-1.767198798749997,False,0.28940000000000005
mp-1205947,Eu2 Ta1 Al1 O6,10,Cubic,225,120.62449057429902,8.367828189463468,12.062449057429902,6.5662227699999995,-10.03051978,-3.442870456733334,True,0.33940000000000003
mp-1189098,Eu6 Al4 As8,18,Monoclinic,15,464.49520634377,5.788112473775599,25.805289241320555,4.28346221,-7.290614972777778,-0.953284135555557,True,0.005900000000000001
mp-1205409,Eu6 Al4 P8,18,Monoclinic,15,425.6569545778577,4.944671196085206,23.64760858765876,4.80448558,-19.529472439444444,-1.192233544656084,True,0.026600000000000002
mp-559134,Eu6 As4 S16,26,Trigonal,167,672.6014677923381,4.257523997616547,25.869287222782233,3.79735293,-6.9739750030769265,-1.3346321300000041,True,0.24860000000000002
mp-505346,Eu6 B4 O12,22,Trigonal,167,291.6744808838655,6.530131956800016,13.257930949266614,5.11797073,-9.903198929090907,-3.184027536666667,True,0.45880000000000004
mp-1200526,Eu12 Ge8 As16,36,Monoclinic,14,948.4059540545085,6.309157213868751,26.344609834847457,3.62993108,-7.3386814775,-0.8063613013888911,True,0.012199999999999002
mp-2745640,Eu6 Nb2 O14,22,Orthorhombic,63,307.6366599284147,7.133574724983958,13.983484542200669,2.24516714,-19.629441553636365,-3.076726518636364,False,0.15099999999999902
mp-1199220,Eu6 Rh8 Pb26,40,Cubic,223,1071.0874469914472,11.041804166832723,26.77718617478618,6.50486892,-5.7094810305,-0.28018207374999804,False,0.028599999999999
mp-1213142,Eu6 Sn26 Ir8,40,Cubic,223,944.0690975923914,9.737328639778534,23.601727439809785,7.71065797,-32.835044531250006,-0.5000219770000051,False,0.1086
mp-2748966,Eu6 Ta2 O14,22,Orthorhombic,63,305.96936842886885,8.128074437575968,13.907698564948584,2.30390658,-21.919762461363636,-3.198160329757575,True,0.1545
mp-559031,Eu8 Br12 O2,22,Hexagonal,186,626.7306919350134,5.846334218669394,28.48775872431879,3.73225328,-7.651527641818185,-2.567701471363641,False,0.8538000000000001
mp-1204426,Eu32 C16 N32 F40,120,Tetragonal,114,1708.2526766734015,6.088231651036308,14.235438972278347,3.84289419,-9.333652967916667,-2.498176201250002,True,0.16239999999999902
mp-28546,Eu8 Cl12 O2,22,Hexagonal,186,548.6672406051231,5.063771663299183,24.939420027505594,4.40198733,-8.080058490454546,-2.880816175454547,False,0.9888000000000001
mp-1191507,Eu8 I12 O2,22,Hexagonal,186,760.020280502254,6.053299638415513,34.546376386466086,4.6669547300000005,-7.133935396818182,-2.111709546363637,False,1.200199999999999
mp-1202692,Eu10 B6 Cl2 O18,36,Orthorhombic,20,536.8201978659855,6.011498128248421,14.911672162944042,4.83784603,-9.701192359166667,-3.153474207361113,False,0.2876
mp-647532,Eu10 P6 Cl2 O24,42,Hexagonal,176,620.0408243113244,5.78572502070991,14.762876769317248,5.72651372,-9.388286068333334,-3.249664401139456,True,0.6537000000000001
mp-1212781,Eu10 P6 O24 F2,42,Hexagonal,176,615.1909609483974,5.742507503703151,14.6474038321047,6.04587366,-9.483376064285713,-3.341644417329932,False,0.39069999999999905
mp-553893,Eu12 Mo20 O78,110,Monoclinic,15,1799.4145306804205,4.605177498677158,16.35831391527655,0.36630803,-8.945132969363636,-2.342302936909091,False,0.09819999999999901
mp-1190780,Eu7 Cl2 F12,21,Hexagonal,174,335.33138638895565,6.747678489149327,15.968161256616936,4.87061794,-19.132219373809523,-3.919676888095239,False,0.5699000000000001
mp-1212749,Eu2 Al24 O38,64,Hexagonal,186,589.0453228990472,4.396177480920452,9.203833170297612,10.08397913,-8.09191259187503,-3.42796631156253,True,0.169599999999999
mp-1019732,Eu4 Al8 O16,28,Monoclinic,4,380.8417501999522,4.707682088895626,13.60149107856972,5.74942146,-8.780427923214287,-3.413126838214287,False,0.09919999999999901
mp-1202507,Eu32 Al32 F160,224,Tetragonal,88,2980.502644148394,4.8838367540749354,13.305815375662474,5.34961104,-7.343783384196429,-3.971933438482144,True,0.7047999999999991
mp-8109,Eu2 B8 O14,24,Orthorhombic,31,201.52803667108026,5.062560224715145,8.397001527961677,7.50635829,-8.952668805416666,-2.982551635972221,True,2.1466
mp-23311,Eu10 Br20,30,Tetragonal,85,949.5815900272147,5.451975810284797,31.652719667573823,3.20478735,-6.913731128333336,-2.393062800000004,True,1.045799999999999
mp-1212716,Eu4 C4 N8,16,Orthorhombic,62,257.90940287131104,4.944429893955914,16.11933767945694,3.99593022,-10.029979511875,-0.981646287500002,False,0.4575
mp-554518,Eu4 C4 O12,20,Orthorhombic,62,255.5541915816184,5.509426855134597,12.77770957908092,4.92373906,-9.494560945,-2.6224288605000012,False,0.429299999999999
mp-22887,Eu4 Cl8,12,Orthorhombic,62,303.88117919445483,4.871434851663826,25.3234315995379,4.34222328,-19.615381216666666,-2.6734610466666693,False,1.214399999999999
mp-556382,Eu2 Cl2 F2,6,Tetragonal,129,116.37656244476132,5.890547611324809,19.396093740793553,5.72249769,-19.394672648333334,-3.461556127500001,False,0.115499999999999
mp-21356,Eu2 Cu2 Se2 F2,8,Tetragonal,129,144.45588999323593,7.206719361636187,18.05698624915449,5.20520466,-7.15091539125,-2.201644781835938,False,0.030499999999999004
mp-542765,Eu4 Dy4 Cu4 S12,24,Orthorhombic,62,511.19592384389443,6.161519615852921,21.29983016016227,5.24872882,-7.160377051249999,-1.923581581944443,False,0.0621
mp-1070860,Eu2 H2 Cl2,6,Tetragonal,129,111.93436308492583,5.590543696654979,18.65572718082097,4.41358876,-6.946298621666668,-1.7690249037500032,False,0.307999999999999
mp-1212722,Eu2 Hf2 F14,18,Monoclinic,4,282.9708145113531,5.439182221385518,15.720600806186285,-2.76671174,-15.723647722222223,-3.995370638333335,False,0.1365
mp-753781,Eu1 Hf1 O3,5,Cubic,221,68.80440725408809,9.133639660900897,13.760881450817617,5.45004823,-10.737502918,-3.719666126000001,True,0.479599999999999
mp-1190059,Eu4 Hf4 S12,20,Orthorhombic,62,450.9171333105742,6.284678757042116,22.54585666552871,4.62230329,-23.6405126545,-2.0850535841875,True,0.1287
mp-1102093,Eu4 I8,12,Orthorhombic,62,509.22795200753416,5.292732391321431,42.435662667294515,3.44438261,-6.320225555833332,-1.8748465075,True,1.3259
mp-1095411,Eu1 In2 Ge4 Ir4,11,Tetragonal,121,217.12058435164744,11.020987702340387,19.73823494105886,6.93609625,-6.819938021818182,-0.48791006348484905,False,0.12710000000000002
mp-1212752,Eu2 Lu2 Cu2 S6,12,Orthorhombic,63,246.19045085683132,6.565143902273583,20.515870904735944,5.31574416,-7.135809415,-1.9151286248611101,True,0.1897
mp-1019726,Eu8 Mg24 Si8 N32,72,Tetragonal,88,916.7899774523734,4.47729261888599,12.733194131282964,6.65835525,-7.125619919583333,-1.1302920340277791,False,0.207599999999999
mp-643756,Eu2 Mg2 H8,12,Orthorhombic,36,141.08352730658189,4.244243979909383,11.756960608881824,3.0116933,-4.744876618333333,-0.49500200416666706,False,0.170599999999999
mp-1095254,Eu2 Mo2 O8,12,Tetragonal,88,166.7662963154309,6.211384472500549,13.897191359619242,3.99512737,-9.473387579166667,-2.652453238333334,False,0.16659999999999903
mp-1201130,Eu4 Nb8 O24,36,Monoclinic,14,492.58425170783704,5.849129571034333,13.682895880773252,3.7681766100000003,-9.920920414444446,-3.234421745000001,False,0.155199999999999
mp-1195922,Eu4 P28,32,Monoclinic,14,670.2207686582609,3.654760820538164,20.944399020570653,5.49393892,-13.1091842846875,-0.41725717229166404,False,0.37600000000000006
mp-20217,Eu4 P4 S12,20,Monoclinic,14,468.05891340219597,3.9611326078576092,23.402945670109798,4.8848367,-15.6136774785,-1.288086223782738,False,0.8440000000000001
mp-20742,Eu4 P4 Se12,20,Monoclinic,14,531.1167416469148,5.250249069475029,26.55583708234574,3.9052052,-19.1985621025,-1.1070341585327381,False,0.493299999999999
mp-616175,Eu4 S4 O16,24,Orthorhombic,62,305.85798553296405,5.386262623005255,12.74408273054017,6.0173536,-8.31204552875,-2.608992945000002,False,1.0685
mp-755177,Eu2 Se2 O6,10,Monoclinic,11,148.47427375094398,6.238942248256981,14.847427375094398,4.97208367,-7.976394935,-2.250813653468751,False,0.08659999999999901
mp-560341,Eu4 Si8 N8 O8,28,Triclinic,1,369.51968320621313,4.8199749180984,13.19713154307904,6.8443267,-9.179480362142856,-2.363591008571429,False,0.5023
mp-657233,Eu4 Tl4 P4 S16,28,Orthorhombic,62,726.6464456394274,4.712842128866323,25.95165877283669,4.52152294,-6.133395965,-1.186467989710886,False,0.056600000000000004
mp-12728,Eu2 Tm2 Cu2 S6,12,Orthorhombic,63,250.61547332610797,6.369280990932468,20.884622777175665,5.31712343,-7.135748155000001,-1.921598360416668,False,0.23409999999999903
mp-2030750,Eu2 V2 O8,12,Orthorhombic,74,169.60481661841925,5.226302334841995,14.133734718201604,0.23096918,-9.369385168333332,-2.842074834166668,False,0.1841
mp-1212698,Eu2 Zr2 F12,16,Orthorhombic,67,220.03120599916917,5.391132736238068,13.751950374948073,3.82554296,-14.10103317375,-4.097677883750002,False,0.5628000000000001
mp-1106293,Eu4 Zr4 O12,20,Orthorhombic,62,274.21787904044083,7.053166080151789,13.710893952022042,5.23632035,-10.376129998500002,-3.640190886500001,True,0.18659999999999902
mp-1189927,Eu4 Zr4 S12,20,Orthorhombic,62,453.9792656740195,4.965501930606425,22.698963283700973,4.16187358,-8.331561390000001,-2.081383140500001,True,0.145299999999999
mp-23069,Fe2 I6 O18,26,Hexagonal,173,385.17596368137714,5.005665172475196,14.814460141591429,2.03895376,-5.407422442307692,-0.978675665384616,False,2.0217
mp-649683,Fe4 P8 O24,36,Monoclinic,15,432.6607689335354,3.282061936730978,12.018354692598205,2.01174075,-7.9137260652777766,-2.470533366309521,True,2.3833
mp-541930,Fe6 P18 O54,78,Monoclinic,9,995.895670799719,2.928866361985792,12.767893215381013,0.763107099999999,-7.805626616794872,-2.4788503990201463,False,2.793399999999999
mp-22265,Fe4 Sb8 O16,28,Tetragonal,135,432.1332126609825,5.585109174329644,15.433329023606518,5.73472767,-6.9249625282142855,-1.707838569642855,True,0.5327000000000001
mp-505009,Fe4 Sb8 O24,36,Tetragonal,136,412.2278093005656,6.370390694791666,11.450772480571267,4.98045354,-7.026841844166666,-1.8695318752777772,False,0.5366000000000001
mp-9198,Fe1 Si4 P4,9,Triclinic,1,142.79220689747766,3.396639507818292,15.865800766386407,7.44490812,-6.041138171111111,-0.281895123174603,False,1.023299999999999
mp-21925,Fe8 Mo12 O48,68,Orthorhombic,60,1191.1499693410258,3.298370592064647,17.516911313838616,-0.86768065,-8.30060802514706,-1.8975183304411782,False,2.6649000000000003
mp-540767,Fe4 S6 O24,34,Trigonal,148,436.1826633418016,3.044654290836532,12.828901862994163,0.20022323,-7.049341865,-1.8298916777941172,True,0.0045000000000000005
mp-555589,Fe8 Se24 O60,92,Monoclinic,14,1536.0030779880606,3.569464273388715,16.695685630305007,1.57890372,-6.190395655217391,-1.314964074307065,True,0.709399999999999
mp-505098,Fe8 Se12 O48,68,Monoclinic,14,918.2547227373846,3.910137895832627,13.503745922608596,0.5515219,-6.37030016235294,-1.264223167472426,False,2.2467
mp-1224755,Fe8 As4 O16 F4,32,Monoclinic,9,413.9290067911999,4.326287362526622,12.935281462224998,3.65709002,-7.2985632478125,-1.884080579375,False,1.9063999999999992
mp-558202,Fe4 Cu6 Se12 O36,58,Monoclinic,14,815.79604611239,4.331822319802993,14.065449070903275,1.9644306,-6.05389923862069,-1.25126374255388,False,0.25820000000000004
mp-22421,Fe4 Ge2 O8,14,Cubic,227,147.23598060888963,5.601316735348605,10.516855757777831,3.29921629,-7.739175189999999,-1.831330290714285,False,1.407699999999999
mp-1213486,Fe8 H8 Se12 O40,68,Monoclinic,14,941.6207062213847,3.6016108471625072,13.84736332678507,2.72205802,-6.308938823529412,-1.385543542325367,False,2.3287
mp-1199115,Fe8 H24 S12 O60,104,Monoclinic,14,1179.7744049082398,2.5556002379349803,11.34398466257923,-0.30585783,-6.407546715673077,-1.640410760673076,False,2.1469
mp-28104,Fe8 Mo4 P48,60,Orthorhombic,60,862.3962588139988,4.461871992849093,14.373270980233313,8.53722732,-6.554629390000007,-0.369871067714292,False,0.021099999999998002
mp-35596,Fe4 Ni2 O8,14,Orthorhombic,74,142.76703202962187,5.452222427486228,10.197645144972991,3.57517255,-7.664187429285714,-1.591041269285713,False,1.361599999999999
mp-1102399,Fe4 P4 O14,22,Triclinic,1,257.3358492426871,3.686274528952315,11.697084056485778,3.27643279,-8.045931502727273,-2.372593638571427,False,0.7385
mp-1202233,Fe12 P18 O54 F18,102,Hexagonal,176,1321.2725484140046,3.058489933093757,12.953652435431417,-0.28027094,-7.44534345921569,-2.535951155329135,True,2.5033
mp-704946,Fe4 P8 Pb6 O32,50,Monoclinic,14,708.6813083996619,5.216650411051926,14.17362616799324,2.3655657,-7.508363700399999,-2.352073547942856,False,2.4141999999999992
mp-556581,Fe8 P4 Cl4 O16,32,Monoclinic,15,453.80670414947684,3.5437145640185053,14.181459504671151,1.87806265,-7.6158749978125,-2.116387919642856,True,0.5959999999999991
mp-18121,Fe8 P4 O16 F4,32,Monoclinic,15,382.76320003576444,3.91591308505489,11.961350001117639,2.78930138,-7.8733182171875,-2.365666674642858,False,0.28550000000000003
mp-2017427,Fe4 P2 O10,16,Tetragonal,109,177.88164234605202,4.157111313157726,11.117602646628251,5.38802325,-10.4946209575,-2.035376527247024,False,0.31809999999999905
mp-1224708,Fe4 Pb2 Se8 O24,38,Triclinic,1,570.9252309704484,4.809055309450831,15.024348183432853,1.5813684000000001,-6.384696512631579,-1.436703488388157,False,1.8645
mp-1225390,Fe4 Te4 Pb6 O24,38,Monoclinic,9,534.5526871602647,7.334123853208331,14.067175977901702,4.11989547,-6.5398353144736845,-1.606144394649122,True,1.754
mp-559713,Fe12 P16 O56,84,Orthorhombic,62,1111.5632684638563,3.079906673987702,13.232896053141147,1.8122213500000002,-7.947555354404756,-2.407392887670061,False,1.8996
mp-19346,Fe6 P4 O16,26,Monoclinic,14,297.4272228794915,3.99160319216485,11.439508572288135,2.7283269800000003,-8.128574840384614,-2.295905708021976,False,0.8948
mp-561343,Fe12 Te16 O48,76,Monoclinic,14,1063.889725998378,5.431198597827585,13.998549026294448,4.323102439999999,-6.6881584675,-1.564010085219297,True,1.7774
mp-1203485,Fe12 B44 H4 O80,140,Orthorhombic,31,1154.951370102959,3.49347237836356,8.249652643592563,5.89050369,-8.300029979714285,-2.550379704059522,False,0.3226
mp-22223,Fe12 B4 O20,36,Orthorhombic,55,355.03359641994285,4.8332174578230624,9.862044344998413,3.50816274,-8.280407674166668,-1.9660454046296292,False,1.019499999999999
mp-1199228,Fe6 P4 H4 O20,34,Monoclinic,14,373.24278051773007,3.483461516482133,10.977728838756766,1.80923793,-7.532193409411765,-2.090372608928571,True,1.7308
mp-1213069,Fe6 Pb10 F38,54,Tetragonal,108,847.0968914446663,6.133704739975148,15.686979471197525,0.47300339,-5.646571466296296,-2.671145758703703,True,2.9969
mp-1194355,Fe6 Sb4 Br8 O8,26,Orthorhombic,64,625.1193205957086,4.221844412176652,24.043050792142637,1.10770663,-6.039950604615385,-1.423973968461538,False,2.3936
mp-1199909,Fe6 Sb10 I6 O18,40,Triclinic,2,849.2817958703064,5.08766997229215,21.23204489675766,5.7045865,-6.25782306575,-1.49988522975,False,2.5007
mp-735662,Fe8 As20 Pb2 O44,74,Triclinic,2,1166.6479575627793,4.360501665403309,15.765512940037558,1.9855539800000002,-6.879490435540541,-1.659244507297297,False,1.7469000000000001
mp-28519,Fe8 As10 O26,44,Triclinic,2,589.8748475888096,4.537781580200644,13.40624653610931,1.9507088,-7.180171403636362,-1.654980923295453,False,1.717499999999999
mp-510450,Fe7 As6 O24,37,Triclinic,2,451.2508613083494,4.505729198011462,12.195969224549984,1.92058274,-7.2680351016216225,-1.698793269594594,False,1.5249000000000001
mp-1203691,Fe7 Sb10 Br8 O18,43,Triclinic,2,859.1695191287457,4.900882688391629,19.98068649136618,2.49442144,-6.281267634418605,-1.5664064427906972,False,2.4551
mp-1201515,Fe7 Sb10 Cl8 O18,43,Triclinic,2,807.8131200133416,4.481467255986815,18.786351628217247,2.66457602,-6.40409316627907,-1.649865227674419,False,2.5717
mp-704626,Fe4 Ag4 Se8 O24,40,Orthorhombic,33,590.784682317046,4.695384202912479,14.76961705792615,1.20753728,-6.04704936825,-1.247794580885416,False,1.179
mp-1225099,Fe1 Ag2 Sn3 S8,14,Trigonal,166,300.12824798046347,4.892244543772462,21.437731998604534,5.56696288,-4.873848426428571,-0.638742092738093,False,0.8741000000000001
mp-19225,Fe1 Ag1 O2,4,Trigonal,166,44.86647144072492,7.243436164392254,11.21661786018123,2.87547709,-6.521329300625,-1.219109076041666,False,1.148499999999999
mp-1202376,Fe4 Ag4 P8 O28,44,Monoclinic,14,544.5594207515228,4.118498939348613,12.376350471625518,3.77445498,-7.354706272727273,-2.192921456904761,True,1.8448
mp-2008,Fe2 As4,6,Orthorhombic,58,89.86017320542841,7.60188367003951,14.976695534238068,6.3776090100000005,-6.193539033333335,-0.256783608333336,False,0.28299999999999903
mp-21016,Fe4 As4 O16,24,Monoclinic,14,300.7565582959569,4.301333473258373,12.531523262331538,0.74787422,-7.188357069999999,-1.699692442916665,False,1.557999999999999
mp-561511,Fe4 As4 S4,12,Monoclinic,14,170.39560714503736,6.347305252930267,14.199633928753114,6.92338233,-6.372841523333334,-0.61334042,False,0.7373000000000001
mp-1101894,Fe4 As4 Se4,12,Monoclinic,14,188.05874552278055,7.4074558274239894,15.67156212689838,6.21643243,-6.020275271666668,-0.47492353161458406,False,0.44859999999999906
mp-1101938,Fe4 B8,12,Orthorhombic,62,86.7227772916286,5.933250012956842,7.226898107635717,8.29298741,-7.572315125833334,-0.296046875277777,False,0.5153999999999991
mp-19097,Fe2 B2 O6,10,Trigonal,167,90.18607292723622,4.222110400646406,9.018607292723622,2.14937788,-8.269021531000002,-2.270362331833334,False,1.481599999999999
mp-20028,Fe4 B4 Pb4 O16,28,Orthorhombic,62,352.2111596136394,6.371394957580149,12.578969986201406,3.09749457,-7.607812850714284,-2.08582655488095,False,2.1228
mp-1197024,Fe4 Bi4 Se12 O36,56,Orthorhombic,19,889.9663595870363,4.8191038402896424,15.892256421197077,3.81459346,-6.2506830478571445,-1.437865976573661,False,2.6249000000000002
mp-583463,Fe6 Cl18,24,Trigonal,149,578.1438476765462,2.79528438994453,24.08932698652276,-0.07238041,-4.668593320833335,-1.164680918333334,False,0.4268
mp-1225059,Fe2 Cl8,10,Orthorhombic,65,246.91805244749287,2.6585109272782033,24.691805244749286,0.20214343,-4.170437406,-0.997598924,False,0.2505
mp-540828,Fe2 Cl2 O2,6,Orthorhombic,59,103.12384033276442,3.455486604643026,17.187306722127403,0.82134767,-6.5817956933333335,-1.492954021666667,False,1.9133
mp-510281,Fe1 Cu1 O2,4,Trigonal,166,40.43653967417185,6.216869178480445,10.109134918542962,3.85972224,-6.937399098749999,-1.3211116262499991,False,0.8043999999999991
mp-556911,Fe2 F4,6,Tetragonal,136,72.16258851761452,4.318802548760486,12.027098086269087,0.97110852,-6.689816664999999,-2.590574678333332,False,1.6921
mp-1213622,Fe2 F12,14,Monoclinic,15,202.4799674244229,2.785641977932983,14.462854816030207,-4.8375269,-4.447496921428572,-1.5970489985714291,False,0.5263
mp-24537,Fe2 H16 Br4 O8,30,Monoclinic,14,385.13851286868925,2.480980324267545,12.837950428956308,-1.02703152,-5.134622821666666,-1.221483500999999,False,1.7042000000000002
mp-1199758,Fe4 H32 N12 O52,100,Monoclinic,14,974.5775749941068,2.139502483144078,9.745775749941068,-1.47513698,-6.106171227699999,-1.107384066899999,False,2.3425000000000002
mp-21522,Fe4 Ni8 B4 O20,36,Orthorhombic,55,349.9269784591056,5.011884536230351,9.720193846086268,4.01018031,-7.551591123055555,-1.8349809712962952,True,1.6665
mp-1224908,Fe2 Ni2 Sb12,16,Monoclinic,12,376.3126709213889,7.458260200939684,23.519541932586804,7.39404753,-5.152344536875002,-0.274323870625002,True,0.128499999999999
mp-1274279,Fe4 O4,8,Monoclinic,12,84.98847683834407,5.6148992124359385,10.623559604793009,4.16044822,-8.190510495,-1.481519387499999,False,1.8157
mp-20027,Fe2 P4,6,Orthorhombic,58,75.14771676361988,5.205722709332147,12.524619460603313,8.53079943,-6.968965603333333,-0.53530951642857,False,0.43270000000000003
mp-558841,Fe4 P8 H4 O28,44,Monoclinic,14,521.5826674513935,2.939102364501344,11.854151532986215,1.30064103,-7.50928799090909,-2.297300560503246,False,2.6776