material_id,composition,nsites,crystal_system,space_group,volume,density,density_atomic,efermi,energy_per_atom,formation_energy_per_atom,is_gap_direct,band_gap
mp-2748904,Rb8 Sn2 O6,16,Monoclinic,9,411.2441939081177,4.107126494078474,25.702762119257358,3.71919828,-13.719182019375,-1.422095743749999,False,2.083999999999999
mp-756570,Rb8 Sn2 O6,16,Monoclinic,9,437.020366483775,3.864881488077475,27.313772905235936,1.60732754,-4.368709549375,-1.521760654374999,False,1.5106000000000002
mp-7118,Rb8 Sn2 O8,18,Triclinic,2,407.76591180900647,4.272468912595887,22.653661767167026,0.6694863600000001,-4.851159020000001,-1.770764335,False,2.1626
mp-30230,Rb32 Sn8 S32,72,Cubic,218,2484.484061417355,3.14848086750312,34.50672307524104,0.33550949,-3.97740401,-1.2568321861111111,True,2.417
mp-505490,Rb24 Sn6 Sb36,66,Trigonal,147,2992.3521294142015,3.96598343556047,45.3386686274879,2.40621112,-3.39286458469697,-0.41961771333333203,False,1.062999999999999
mp-14858,Rb8 Tc12 S26,46,Monoclinic,15,1143.0514237931477,3.912815845681123,24.848943995503213,3.83271615,-6.313690155869565,-1.101314315108694,False,0.9722000000000001
mp-1204243,Rb16 Te32 O92,140,Orthorhombic,33,2242.0420338648923,5.127154942133546,16.014585956177804,4.04221299,-5.721287269000001,-1.639239081809524,True,1.198599999999999
mp-567491,Rb8 Ti4 P12 Se50,74,Orthorhombic,43,2480.611018652442,3.4775008789586,33.5217705223303,0.85485699,-4.59049817,-0.817423888462636,False,1.1898
mp-542067,Rb8 Ti6 S28,42,Monoclinic,15,1084.1742392830156,2.862230239415653,25.813672363881324,2.03781471,-5.410911756666662,-1.337309552619042,True,1.242899999999999
mp-1198857,Rb8 V4 S8 O38,58,Triclinic,2,997.4634800185729,2.916671940357958,17.197646207216774,1.20404683,-6.758580889827586,-2.184282758965516,False,2.0238
mp-542013,Rb8 Zr6 Se28,42,Monoclinic,15,1318.465304538418,4.3349792015388005,31.392031060438523,1.19447462,-5.084770398095236,-1.346294261562497,True,1.4843
mp-541953,Rb8 Zr6 Te32,46,Monoclinic,15,1737.9068221119887,5.07770616124115,37.78058308939106,3.36822364,-4.482903926739131,-1.010811210507246,True,0.7044
mp-862605,Rb4 Zr6 C1 Cl18,29,Monoclinic,12,858.7659856388228,2.976597239569616,29.612620194442165,1.3279608,-5.606113284482758,-2.236776182327586,False,1.265199999999999
mp-541389,Rb10 Co4 O8,22,Triclinic,2,504.47888441654237,4.01049635825494,22.930858382570108,2.48742583,-4.822496165454544,-1.28055545431818,False,1.106599999999999
mp-768830,Rb40 Fe8 O32,80,Orthorhombic,61,1875.2613438607252,3.876223125056544,23.440766798259066,1.81274544,-4.7900695156249995,-1.473615956374999,False,1.872799999999999
mp-1020613,Rb40 Ga8 O32,80,Orthorhombic,61,1749.8306351185902,4.2594356998571055,21.87288293898238,0.82193309,-4.414638417499998,-1.642377376999998,True,2.1824
mp-17978,Rb20 Ge4 P12,36,Orthorhombic,62,1239.852010330124,3.176295491069681,34.44033362028122,1.83838297,-3.171151498055555,-0.307582743214285,True,0.8487
mp-1222256,Rb30 Mo18 O18 F84,150,Trigonal,164,3118.067593866764,3.288418669212627,20.787117292445092,0.5180054,-5.989244210066666,-2.826146731766666,True,1.1405
mp-17490,Rb20 Si4 As12,36,Orthorhombic,62,1260.3379092482028,3.584692317973828,35.009386368005636,1.948855,-3.089430995833333,-0.385169219166666,False,0.7647
mp-861513,Rb10 Si2 H2 O10,24,Monoclinic,12,481.3563891765348,3.701050039527692,20.056516215688948,0.76175811,-5.27580872,-2.0705620653125,False,2.5914
mp-571228,Rb10 Sn2 P6 Se30,48,Triclinic,2,1591.88051948302,3.804026188804568,33.16417748922958,0.8169311300000001,-4.109512348750001,-0.8762900588160341,False,1.0812
mp-685928,Rb10 Tc6 S14,30,Monoclinic,8,860.7454335632029,3.649227343453711,28.691514452106766,1.95719845,-5.463474104666664,-1.133267159999996,False,1.1360000000000001
mp-16001,Rb10 Ti12 Ag2 Se54,78,Trigonal,159,2213.576460600429,4.432445989117935,28.379185392313193,1.92113949,-4.991439074999999,-1.157896253524305,True,0.5503
mp-1219676,Rb10 Ti2 Sb14 O44,70,Monoclinic,9,1126.1718896062375,4.952879117289779,16.08816985151768,3.85660953,-6.41887489,-2.117265942309523,False,1.6305
mp-9698,Rb12 Al2 Sb6,20,Monoclinic,11,825.1098892618223,3.6429119411781983,41.25549446309112,2.00238664,-2.649463778000003,-0.447885379500003,False,0.28250000000000003
mp-30005,Rb12 Br8 O2,22,Trigonal,167,821.0877493792486,3.431638601686154,37.322170426329485,0.6200136900000001,-3.385858193636365,-1.8059535045454562,True,1.5308000000000002
mp-1209286,Rb12 Cd2 O8,22,Hexagonal,186,496.23797729143234,4.612581661923943,22.556271695065107,2.119454,-3.676572557272728,-1.255203589545455,True,1.291
mp-29468,Rb12 Cl8 O2,22,Trigonal,167,732.9663349601925,3.03857808130697,33.316651589099656,0.89929581,-3.608064704545455,-1.95121591909091,True,1.6658
mp-772572,Rb12 Co4 O14,30,Monoclinic,14,611.1630219781921,4.035685495027772,20.372100732606402,0.46445515,-5.143922718333331,-1.491538390999998,False,1.152699999999999
mp-18224,Rb12 Ge4 O14,30,Monoclinic,14,612.88433874197,4.172899064230347,20.429477958065668,0.04901417,-5.302208493666667,-1.984542681666666,True,2.8402000000000003
mp-1204523,Rb12 In2 P6 S28,48,Monoclinic,15,1449.2787857835901,2.679853643791764,30.19330803715813,1.52759842,-4.5365679666666665,-1.085491604191467,True,1.7000000000000002
mp-29705,Rb24 Sn8 S28,60,Orthorhombic,19,2030.8532741569938,3.187817115100734,33.84755456928323,0.75956193,-4.086375581833333,-1.2283179073333321,True,2.3521
mp-31039,Rb12 Te4 O18,34,Monoclinic,15,705.4598663576222,4.293409237616881,20.748819598753595,1.22913719,-5.124092279705883,-1.788711969901962,True,0.923
mp-1210240,Rb12 V12 P12 O62,98,Orthorhombic,31,1445.2077776462459,3.447633220315463,14.747018139247407,1.47075233,-7.6442671551020425,-2.618424845670555,True,0.986699999999999
mp-14407,Rb28 Na4 Ge32,64,Cubic,205,2386.9312785815478,3.345896442305854,37.295801227836684,1.23214451,-3.02775421375,-0.203399080867457,False,1.3412
mp-1202504,Rb28 Na4 Si32,64,Cubic,205,2231.7798497776967,2.517686169907709,34.87156015277651,1.28995168,-3.2394854578125,-0.013985237429957002,False,1.6935
mp-559795,Rb14 Na2 Zn4 O12,32,Triclinic,2,714.2886488601367,3.9431339982535203,22.321520276879273,0.70720278,-3.976743821875,-1.450949288367457,False,1.5706
mp-18440,Rb14 Nb2 As8,24,Orthorhombic,31,883.3945455898111,3.725116942421304,36.808106066242125,1.41214894,-3.375353249166667,-0.40489210937500003,False,0.767899999999999
mp-1219828,Rb28 V4 Si4 O32,68,Monoclinic,7,1449.0078423145953,3.691427354794509,21.30893885756758,0.94276503,-5.850690061617647,-2.265004729411764,False,2.4409
mp-1194809,Rb16 Cu12 As16 S38,82,Monoclinic,4,2214.7609427540033,3.409347758544654,27.009279789682967,2.4509181,-4.424504832317073,-0.8042774020121941,False,1.2793
mp-561139,Rb16 Fe4 O14,34,Monoclinic,14,733.9566095884823,4.106019229336644,21.586959105543595,1.00803122,-5.019481313823529,-1.524184723529411,False,1.608699999999999
mp-1209464,Rb8 Zr6 B1 Br20,35,Cubic,225,1247.3357464745059,3.780773087190187,35.63816418498588,2.02385383,-4.703309647714287,-1.887629681119048,False,0.08999999999999901
mp-1209491,Rb8 Zr6 Be1 Br20,35,Cubic,225,1238.8390448361347,3.8042927634895323,35.39540128103242,2.20198916,-4.5734017940000005,-1.8417212247142851,False,0.9719000000000001
mp-1209503,Rb8 Zr6 Mn1 Br20,35,Cubic,225,1247.79480499435,3.8381054993243833,35.65128014269571,2.23610448,-4.705038788,-1.818426720798029,False,0.15990000000000001
mp-1205160,Rb18 Fe14 P20 O80,132,Monoclinic,14,2157.4556215919915,3.247779235666527,16.3443607696363,0.55584455,-7.319352120378787,-2.468016808620129,True,2.397999999999999
mp-555526,Rb4 Ag4 N8 O24,40,Monoclinic,14,635.0680752408113,3.319109362073416,15.876701881020281,-0.42846608,-6.075092199,-1.056312871916667,False,2.5282
mp-1209385,Rb4 Ag4 P8 O24,40,Monoclinic,14,615.2430725909478,3.7924135230506053,15.381076814773696,3.54749214,-6.7632873520000025,-2.329068868845239,True,2.9292
mp-570593,Rb4 Ag8 As12 Se24,48,Monoclinic,14,1351.754504694665,4.912398086331313,28.161552181138855,1.72320995,-3.9979412554166682,-0.5269207643663201,False,1.201299999999999
mp-17756,Rb3 Ag6 Sb3 S12,24,Trigonal,154,644.9712341395654,4.257535546262503,26.87380142248189,1.86933827,-4.051430089166665,-0.63282397177083,False,0.617799999999999
mp-10477,Rb2 Ag6 Se4,12,Monoclinic,12,301.48086761450327,6.245922257787749,25.12340563454194,1.88837653,-3.323370784999999,-0.573175774531248,False,0.061200000000000004
mp-10481,Rb2 Ag6 Te4,12,Monoclinic,12,348.3035321991978,6.333844874322422,29.025294349933148,3.00108247,-3.158997896666664,-0.526338080972218,False,0.2827
mp-28703,Rb6 Ag30 S18,54,Hexagonal,190,1270.1531735631972,5.655640604550201,23.521355065985134,1.55649609,-3.537925595925927,-0.470114355185185,True,0.7669
mp-8603,Rb4 Ag4 O4,12,Tetragonal,139,292.7343311663189,4.749830446430842,24.394527597193242,0.17168123,-3.923519339166667,-0.9997084205555551,False,1.4174
mp-997052,Rb2 Ag2 O4,8,Orthorhombic,63,168.6703061015562,4.436788514976738,21.083788262694526,-0.59218724,-4.439157937499999,-1.009309497291665,False,1.0399
mp-18585,Rb4 Ag4 Se16,24,Orthorhombic,19,711.9769410475196,4.750191142601567,29.665705876979985,1.265335219999999,-3.66387594375,-0.6960230001736101,False,1.1614
mp-1193778,Rb2 Al2 H16 N8,28,Tetragonal,85,276.5972212192769,2.119695914639189,9.878472186402746,1.96932094,-5.259505610357147,-0.599466153750004,False,2.6557
mp-10802,Rb8 As8,16,Orthorhombic,19,561.131929876838,3.797080157274115,35.07074561730237,1.78637971,-3.242885495625,-0.41755719312500006,True,0.5879000000000001
mp-1219627,Rb1 As4 H3 O12,20,Triclinic,1,251.0800286516027,3.837008929324921,12.554001432580135,-0.33323745,-6.089467534000001,-1.6283647550625,False,2.7692
mp-28562,Rb8 As8 Se16,32,Monoclinic,15,1104.5521034750916,3.8282680721212383,34.51725323359661,0.6021840900000001,-4.012057439687501,-0.8514375496093761,False,1.6541000000000001
mp-15013,Rb6 B6 S12,24,Trigonal,167,662.5437982978738,2.412203507548378,27.60599159574474,0.42441605,-5.116312381666668,-1.132151137083333,True,2.8318000000000003
mp-9047,Rb4 B4 S12,20,Monoclinic,14,479.1281739873625,2.668265249668954,23.956408699368126,1.9915255900000002,-5.031868422499992,-1.016867513333323,False,2.4085
mp-10552,Rb4 B4 Se12,20,Monoclinic,14,579.4157869268114,3.8191793545415162,28.97078934634057,1.5609404900000001,-4.462325289000001,-0.832793233739582,False,1.6569
mp-559270,Rb2 Ba8 Sb6 O2,18,Tetragonal,140,689.7181798128298,4.892431148849621,38.317676656268326,2.87693709,-4.324367696111111,-1.436434523055554,False,0.9417000000000001
mp-17445,Rb4 Ba4 Mn4 O16,28,Orthorhombic,62,504.39684415746115,4.500081717338862,18.01417300562361,2.70727027,-6.77133756857143,-2.220856379347291,False,1.8112
mp-1192550,Rb4 Ba4 P4 S16,28,Orthorhombic,62,818.4647765193408,3.100308626381208,29.230884875690744,1.88386269,-5.0310971392857144,-1.478465595306122,False,2.2671
mp-1192598,Rb4 Ba4 V4 Se16,28,Orthorhombic,62,909.4668857519093,4.305882904497717,32.48096020542533,1.02778529,-17.422029792500002,-1.455420711428571,False,1.245
mp-556872,Rb4 C4 O8,16,Orthorhombic,55,255.51654073096094,3.365764334047848,15.969783795685059,-0.16031564,-6.923943798125001,-1.8976634043750011,True,2.941
mp-696329,Rb2 Ca2 H12 N6,22,Monoclinic,15,277.67105834882267,2.076500643423604,12.621411743128304,0.22563453,-4.998247075,-0.600795636818181,False,1.8986
mp-9845,Rb2 Ca2 As2,6,Tetragonal,129,210.87635664674366,3.157148146649461,35.146059441123946,1.18464594,-3.392463074999999,-0.8403775799999991,False,1.2985
mp-9846,Rb2 Ca2 Sb2,6,Tetragonal,129,247.70433532418815,3.315734799387384,41.284055887364694,1.5632249200000001,-3.235285323333334,-0.8635735924999991,False,1.4979
mp-27400,Rb4 Cd4 Br12,20,Orthorhombic,62,640.6612618927102,4.536791354845082,32.03306309463551,-0.77077197,-2.930630723999999,-1.560353950499999,False,2.7536
mp-1105135,Rb4 Cd4 Ge4 As8,20,Triclinic,2,589.8627477044085,4.7334911440374885,29.49313738522043,1.714013,-3.473006266,-0.2922428295,True,0.7365
mp-1219591,Rb2 Co2 Ni2 F12,18,Orthorhombic,74,275.6151953061709,3.820774256076827,15.311955294787273,-1.15859192,-5.273601944999999,-2.453912864722221,True,0.9368999999999991
mp-1209234,Rb4 Cr4 S8 O32,48,Trigonal,165,714.0881393371103,3.065703216880704,14.876836236189797,0.35693858,-7.005200340416668,-2.130701280625,False,2.9234
mp-504649,Rb4 Cr8 Fe4 O32,48,Orthorhombic,62,745.2135853899493,3.327258535391448,15.525283028957277,-0.90303685,-7.490266600208333,-1.795238411666666,False,1.9996
mp-30547,Rb2 Cr6 O16,24,Monoclinic,12,372.20289888771185,3.296526269352012,15.508454120321327,-0.98215939,-7.742282393333333,-1.948668683124999,False,1.8319
mp-7295,Rb1 Cr5 S8,14,Monoclinic,12,266.5835353912112,3.7496384671239653,19.04168109937223,4.60829909,-6.971932404285715,-1.089600406964285,False,0.284699999999999
mp-28818,Rb1 Cr5 Se8,14,Monoclinic,12,308.8300728600329,5.2538915663366,22.059290918573776,3.72078738,-6.4313849649999995,-0.9161661618749981,False,0.015200000000000002
mp-1219598,Rb2 Cr2 Co2 F12,18,Orthorhombic,74,286.04267625651505,3.603732141365901,15.891259792028613,1.69552279,-6.10197449,-2.85196198861111,False,2.1763
mp-559677,Rb4 Cr4 F20,28,Orthorhombic,26,424.91989091235735,3.6336461345830813,15.175710389727048,-0.92299091,-5.761254070357123,-2.875133582142837,False,0.17869999999999903
mp-554311,Rb1 Cr1 F6,8,Trigonal,148,117.58413523315443,3.551071916878567,14.698016904144303,-3.25721952,-5.39653352875,-2.6319465546875,False,1.416399999999999
mp-771648,Rb1 Cr1 O2,4,Trigonal,166,52.17321079045904,5.393561742091892,13.04330269761476,3.10146194,-7.1324162725,-2.000040384375,False,2.7996
mp-1196895,Rb4 Cr4 P8 O28,44,Monoclinic,14,615.7040009222192,3.359431546970129,13.993272748232254,3.96077571,-7.780789338409092,-2.68076609948052,False,2.9787
mp-1206603,Rb1 Cr1 Se2,4,Trigonal,160,99.65106952259009,4.922139902206229,24.912767380647523,3.71755411,-5.4245666324999995,-1.018215508046874,False,1.0185
mp-1209760,Rb4 Cu4 P12 O36,56,Monoclinic,14,813.0320042203492,3.152895911782515,14.51842864679195,2.09591523,-7.104512256250001,-2.400382944566327,False,0.8580999999999991
mp-567644,Rb2 Cu4 Br6,12,Orthorhombic,63,338.86994495265355,4.432467404133066,28.239162079387796,1.4758551500000001,-3.396299071666666,-1.048001235416665,True,1.6395
mp-23055,Rb4 Cu4 Cl12,20,Orthorhombic,60,518.1287961724032,3.273753661866938,25.90643980862016,0.55612016,-3.610672767999999,-1.485598939499999,True,0.185899999999999
mp-7470,Rb4 Cu4 O4,12,Tetragonal,139,261.4234125615979,4.192598702920158,21.78528438013316,1.67360774,-4.5314660700000005,-1.188898820833333,False,0.9215000000000001
mp-7467,Rb2 Cu2 O4,8,Orthorhombic,63,155.27931630283797,3.871455658146089,19.409914537854746,0.35598041,-5.101603205,-1.357687516875,False,0.9136000000000001
mp-11115,Rb2 Cu2 Pd2 Se10,16,Monoclinic,11,429.2823621257276,5.03043554818839,26.830147632857976,2.33679894,-4.190077571875,-0.722680079277343,False,0.9071
mp-18365,Rb4 Cu4 Se16,24,Orthorhombic,19,667.6793591474303,4.624422693809937,27.819973297809597,1.9370189,-3.89986833125,-0.7226372223958331,False,1.0105
mp-541407,Rb8 Cu8 Sn8 S24,48,Monoclinic,15,1270.8154044508995,3.804180417415079,26.475320926060405,3.33075619,-4.471849625,-0.887784408333332,True,0.5314999999999991
mp-726170,Rb4 F12,16,Monoclinic,4,308.9702442472475,3.062630106178171,19.310640265452967,-4.36661626,-3.494283715,-1.8137609156249992,False,2.1173
mp-18868,Rb1 Fe1 Mo2 O8,12,Trigonal,164,228.57275584413844,3.350446067900264,19.047729653678203,-1.28200421,-7.908919881666667,-2.015124586458334,True,2.3779
mp-1209220,Rb1 Fe1 S2 O8,12,Trigonal,150,179.7852117085186,3.079712841936353,14.982100975709884,0.0290587,-6.7340636625,-1.958150124375,False,2.1651
mp-1195892,Rb4 Fe8 F24,36,Orthorhombic,62,519.143169303519,3.980973296270377,14.420643591764417,-0.1840936,-6.025924514722223,-2.758847765555556,True,1.5418
mp-1209606,Rb4 Fe4 Br16,24,Orthorhombic,62,886.6751393809585,3.45285548371379,36.9447974742066,-0.31247026,-3.9991746816666662,-1.3327844445833321,False,1.0312
mp-555667,Rb4 Fe4 F16,24,Orthorhombic,57,363.2177157447561,3.9738787205047372,15.134071489364837,-2.4773028200000002,-5.675797475,-2.824803344583334,True,2.4958
mp-1209403,Rb4 Fe4 I16,24,Monoclinic,14,1066.206207222859,4.042650430490574,44.42525863428579,0.70616793,-3.492793240416664,-0.9016922833333311,True,0.5942000000000001
mp-755536,Rb4 Fe4 O8,16,Orthorhombic,33,276.5875581783195,4.162019208534466,17.28672238614497,0.39087048,-6.60886844,-1.772249116874999,False,1.5864
mp-18396,Rb4 Fe4 P8 O28,44,Monoclinic,14,627.0823231286906,3.339243289621235,14.251870980197515,0.77981497,-7.526615035454546,-2.534139638344155,True,2.5011
mp-1209140,Rb1 Ga1 Se2 O8,12,Trigonal,150,208.34567250189212,3.515665752572842,17.362139375157682,-0.87025286,-5.729341953333333,-1.5139968624739581,False,2.5128
mp-31493,Rb3 Ga9,12,Tetragonal,119,297.47879792633404,4.93402474665607,24.789899827194503,2.3851439,-2.685012384166666,-0.16880684916666602,False,0.147199999999999
mp-558706,Rb4 Ga12 S20,36,Monoclinic,14,924.9651781581192,3.267071498691636,25.693477171058866,1.6538697,-4.5609275077777784,-1.143525288055555,False,2.8639
mp-1209226,Rb4 Ga4 Ag4 F24,36,Orthorhombic,62,589.7423760009165,4.246635928495443,16.381732666692123,-1.686146079999999,-4.528859620833334,-2.4916727293518512,True,0.090799999999999
mp-974682,Rb4 Ga4 H8,16,Orthorhombic,62,314.0481636892319,3.324940106050818,19.628010230576994,0.96066621,-2.998222555,-0.298481811874999,False,1.347299999999999
mp-754596,Rb2 Ga2 O4,8,Cubic,227,146.0560950984401,4.256387156615788,18.257011887305012,0.25078331,-5.527121085,-2.05098305875,False,2.4653
mp-561407,Rb8 Ga8 S16,32,Monoclinic,15,848.6085854487475,3.433297873840197,26.51901829527336,0.870003699999999,-4.3667530434375,-1.2954157359374991,True,2.8587
mp-1209628,Rb8 Ga8 Sn8 Se32,56,Monoclinic,14,1892.6659992364148,4.139294045385822,33.797607129221696,0.9079401300000001,-4.13371645,-0.9905953270535711,False,1.378099999999999
mp-1888,Rb32 Ge32,64,Cubic,218,2306.617201504555,3.642309487163144,36.04089377350867,1.66637758,-2.99349908484375,-0.19171812109374903,False,1.004399999999999
mp-1029403,Rb2 Ge4 N6,12,Orthorhombic,36,166.57624252464186,5.438251544153276,13.881353543720154,4.50688164,-6.0887319025,-0.21516139958333302,True,1.0881
mp-549697,Rb1 Ge1 I1 O6,9,Trigonal,149,147.81778074877755,4.280133134481114,16.424197860975283,0.15971475000000002,-5.6108727766666675,-1.520279379722222,False,2.4295
mp-6639,O40 Ge8 Rb8 Sb8,64,Orthorhombic,33,1015.216995746411,4.7089011440739235,15.862765558537673,1.36825322,-6.409376162031251,-2.10033013796875,True,2.177699999999999
mp-24721,Rb1 H1,2,Cubic,225,54.22068808663736,2.6483681718257923,27.11034404331868,-1.06859736,-2.423320015,-0.235469759374999,True,2.9163
mp-697144,Rb2 H4 N2,8,Monoclinic,11,121.04950481140972,2.784459814794621,15.131188101426215,-0.26086786,-4.43697965,-0.409693476250001,False,1.9074
mp-28328,Rb4 I12,16,Orthorhombic,62,731.6882299311791,4.231923268152993,45.73051437069869,0.7756884900000001,-2.462255811249999,-1.074112831874999,False,1.6271
mp-27193,Rb1 I1 O3,5,Trigonal,160,92.3005840532074,4.684210199306742,18.46011681064148,1.31715203,-4.8422154840000005,-1.3725295435,True,2.8369
mp-23450,Rb2 I2 O8,12,Tetragonal,88,226.45449265208524,4.053114253478137,18.871207721007103,-0.89721196,-4.8861185233333355,-1.170053405416668,False,2.493999999999999
mp-1209459,Rb4 In12 O20,36,Orthorhombic,62,548.2388620017746,6.177891768577699,15.228857277827071,5.01248633,-5.703755008333333,-1.926214971944443,False,1.424
mp-542654,Rb3 In9 S15,27,Monoclinic,10,677.332080893411,4.341125563000797,25.08637336642263,3.41130011,-4.322026241851852,-0.9942647818518511,False,1.1785
mp-558208,Rb4 In4 As8 O28,44,Triclinic,2,729.7439679756769,4.206276818832377,16.585090181265386,0.34568545,-6.254111021590909,-1.9163219383333332,False,2.5506
mp-1209271,Rb4 In4 Br16,24,Orthorhombic,52,935.4750459899559,3.691460305205956,38.978126916248165,1.36624548,-3.267179717499999,-1.552597391527776,True,2.9272
mp-1114001,Rb2 In2 Cl6,10,Cubic,225,327.42314383910946,3.110321793379116,32.742314383910944,0.88647718,-3.626095886999999,-1.769028643833332,False,1.677299999999999