material_id,composition,nsites,crystal_system,space_group,volume,density,density_atomic,efermi,energy_per_atom,formation_energy_per_atom,is_gap_direct,band_gap
mp-1237522,Bi4 Sb12 P24 O96,136,Trigonal,148,1871.552443788226,4.060380516211872,13.761415027854602,1.806309199999999,-7.281291601691176,-2.354205033981092,True,2.2741
mp-1227565,Bi1 Sb3 F20,24,Monoclinic,5,334.11800083725586,4.742437219674122,13.921583368218995,-3.64850244,-4.740498266249999,-2.467411369166666,False,2.1691
mp-23018,Bi2 Sb2 O8,12,Monoclinic,15,156.6488127381902,8.368756310551321,13.054067728182517,5.05287067,-6.4765956083333265,-1.8414490133333272,False,2.4246
mp-610491,Bi4 Se4 Cl4,12,Orthorhombic,62,339.9512584879206,6.318639642273092,28.32927154066005,1.9466165,-27.05618035666667,-0.734089398854166,False,1.8404
mp-33723,Bi1 Te1 Br1,3,Trigonal,156,109.50015781714693,6.315868676503069,36.500052605715645,2.42347249,-3.712127129999999,-0.8220315505555551,False,1.2364
mp-28944,Bi2 Te2 Cl2,6,Hexagonal,186,208.0234245589868,5.939484902623059,34.67057075983113,1.97387339,-30.67963752333333,-0.655658539166665,False,1.5135
mp-22965,Bi1 Te1 I1,3,Trigonal,156,120.86064635924215,6.367951492873749,40.28688211974738,3.23849884,-3.489545913333335,-0.637094973888891,False,1.2325
mp-1227372,Bi4 Te4 Ir4,12,Cubic,198,283.09831364201426,12.406838171800267,23.59152613683452,7.48770385,-45.734091892500004,-0.307808057500011,False,0.46079999999999904
mp-1195032,Bi4 Te4 N4 O24,36,Monoclinic,14,499.86526314823703,5.934153884416214,13.88514619856214,2.70833398,-6.324636518055556,-1.318038298240741,False,2.8005
mp-863374,Bi4 Te4 O16,24,Monoclinic,9,333.26860561717393,7.983655309970392,13.88619190071558,4.87694722,-6.084692797916666,-1.6138287606944441,False,2.2024
mp-1227426,Bi4 Te4 Rh4,12,Cubic,198,283.1719658848922,10.308697104098416,23.597663823741016,7.12877205,-36.44435602166667,-0.425780460000003,False,0.162
mp-28933,Br16 O24,40,Monoclinic,14,764.8048299722651,3.609499311286582,19.12012074930663,-0.71852426,-3.8222503535000003,-0.198695136500001,True,1.7587000000000002
mp-554129,Br12 N4 O16 F40,72,Orthorhombic,18,1202.4976260514795,2.804350602104884,16.70135591738166,-0.83877014,-4.00177791625,-1.102917631805555,True,1.5015
mp-1066781,Br2 Cl2,4,Orthorhombic,36,158.36993217183098,2.419080471638261,39.592483042957745,-1.64777105,-2.1023061725,-0.35956457500000005,False,1.783
mp-1524139,Br2 Cl2,4,Orthorhombic,63,123.10144484216356,3.11214552114122,30.77536121054089,0.23788822,-9.7255816525,-0.019922322500001,False,1.7759
mp-23297,Br2 F6,8,Orthorhombic,36,125.08250317300545,3.634824695074091,15.635312896625681,-1.38251485,-3.08527277625,-1.2406468612500001,False,2.211
mp-29526,Br4 N4 O12,20,Orthorhombic,19,322.4671988112441,2.923029358854789,16.123359940562203,-1.33236572,-5.4999319555,-0.5361104965000001,False,2.208
mp-36262,Br2 O4 F2,8,Monoclinic,9,131.8477813243962,3.2972350326281132,16.480972665549526,-2.1162068,-4.000796882499999,-0.639116652499999,False,2.897999999999999
mp-28131,C4 Se16 Br8,28,Orthorhombic,33,803.0790681073257,4.033357883057904,28.681395289547346,0.41408659000000003,-4.066029178214285,-0.282285682053571,False,1.5997
mp-1214997,C72 N84 Cl36,192,Monoclinic,15,3078.783984783613,1.789366467017301,16.03533325408132,-0.1486518,-7.625800694010418,-0.170452845885417,True,2.7092
mp-680422,C16 Br64,80,Monoclinic,15,2884.9841982496796,3.054042881547761,36.062302478121,-0.71639084,-3.371722473875,-0.21643214737500002,True,2.9265
mp-27814,C1 S14,15,Trigonal,166,409.9997943468919,1.8667736899083651,27.333319623126126,-0.35151479,-4.882615052,-0.404901756166664,False,2.5569
mp-1047036,Ca2 Ag4 O8,14,Tetragonal,88,177.87860175209863,5.971042213470892,12.705614410864188,1.39296066,-5.269659326428576,-1.34347086119048,False,0.9283000000000001
mp-36988,Ca2 Al4 Se8,14,Orthorhombic,66,356.36504249148123,3.8198109252927663,25.45464589224866,2.44186293,-12.510186714285714,-1.4032251023214282,False,2.8458
mp-28153,Ca1 Au2 F12,15,Tetragonal,115,241.41027274108683,4.553507711608064,16.094018182739124,-3.41634627,-11.300718974666667,-1.586015681333335,True,1.5298999999999991
mp-2898,Ca2 Au4 O8,14,Tetragonal,88,182.79843169909492,9.047812470496794,13.057030835649638,2.47158167,-5.515531293571423,-1.466215879285709,True,1.6618
mp-10289,Ca2 B4 C4,10,Tetragonal,140,105.94460190115173,2.687135181770838,10.594460190115173,4.51458841,-7.095505554000002,-0.33116267266666705,False,0.475099999999999
mp-1018630,Ca1 Be2 As2,5,Trigonal,164,88.55295877389277,3.899381088212408,17.710591754778555,4.47206042,-4.371370009999999,-0.6064358749999991,False,0.6613999999999991
mp-11918,Ca2 Be4 N4,10,Tetragonal,140,105.70243697106558,2.705681996929731,10.570243697106559,3.21601932,-6.480731049000002,-1.248534829000001,False,2.0774
mp-1017548,Ca1 Be2 P2,5,Trigonal,164,80.31762422580523,2.481989860712366,16.063524845161048,5.24782548,-4.791342552,-0.7282680198571421,False,0.7359
mp-558751,Ca8 Bi16 O32,56,Monoclinic,15,985.1659924960494,7.039315956824002,17.59224986600088,2.74347346,-6.365616106785713,-2.140257175357141,False,2.6093
mp-7067,Ca1 Cd2 As2,5,Trigonal,164,121.58196997478744,5.664468887529235,24.316393994957487,3.04143828,-3.222472063999999,-0.569298998999997,True,0.216399999999999
mp-9570,Ca1 Cd2 P2,5,Trigonal,164,112.57366457698613,4.821226034196599,22.514732915397225,3.61950738,-3.498724354000001,-0.5474108918571421,True,0.8195999999999991
mp-7430,Ca1 Cd2 Sb2,5,Trigonal,164,145.39760543971062,5.806500524459065,29.079521087942123,4.08951227,-2.954466113999999,-0.517741565999997,False,0.10200000000000001
mp-17544,Ca4 Co8 O16,28,Orthorhombic,62,261.4044132856434,5.639435697074167,9.335871903058692,4.24292736,-7.030624778214284,-1.878585158214284,True,1.6139000000000001
mp-1047437,Ca2 Cu4 O8,14,Tetragonal,88,153.46066195945775,5.002752181970563,10.961475854246983,2.85246799,-5.995365107857142,-1.7102426450000001,False,0.6713
mp-1194059,Ca4 Er8 S16,28,Orthorhombic,62,647.866081916809,5.155460711285895,23.13807435417175,3.02589171,-17.693664061071427,-2.403784009345238,False,1.5692
mp-675750,Ca2 Ga12 Te20,34,Monoclinic,5,1125.0132650162248,5.120056118973085,33.08862544165367,3.31010631,-19.989817277058822,-0.585864777058823,False,0.7370000000000001
mp-1070099,Ca1 Ga2 As2,5,Trigonal,166,114.82741923064728,4.763035749833185,22.965483846129455,3.45701372,-4.107697318,-0.6272899199999991,False,0.681
mp-1078849,Ca2 Ga4 P4,10,Hexagonal,194,209.53190530909714,3.8273206983149652,20.953190530909716,4.72201873,-10.382245811,-0.796646166190475,False,0.1778
mp-14423,Ca8 Ga16 S32,56,Orthorhombic,70,1231.6317139380194,3.319741447321219,21.993423463178917,2.69081642,-4.920475589821429,-1.404014133392856,False,2.747099999999999
mp-13873,Ca8 Ga16 Se32,56,Orthorhombic,70,1427.3687597505545,4.610280383779697,25.488727852688474,1.9766888900000001,-13.62580609375,-1.172936590357143,True,1.922499999999999
mp-644307,Ca4 H16 N8,28,Monoclinic,14,270.6723983345586,1.769863872689547,9.666871369091378,0.52171418,-6.277731212142856,-0.6896962625,False,2.6985
mp-1194276,Ca4 Ho8 S16,28,Orthorhombic,62,655.3173259853222,5.049634867523821,23.404190213761506,3.0106416,-17.39749735107143,-2.405929085535713,False,1.552699999999999
mp-1079772,Ca2 In4 P4,10,Hexagonal,194,248.5220468892759,4.432097066506646,24.852204688927593,5.778602699999999,-14.799247138000002,-0.759321721190477,True,0.40850000000000003
mp-505362,Ca4 Lu8 S16,28,Orthorhombic,62,629.4669840689699,5.468823146604424,22.480963716748924,3.12143716,-18.87700824607143,-2.400143903869048,False,1.5804
mp-9564,Ca1 Mg2 As2,5,Trigonal,164,116.81208386477462,3.3908339197296122,23.362416772954923,3.35493344,-3.84698178,-0.9256247850000001,False,1.2605
mp-29208,Ca1 Mg2 Bi2,5,Trigonal,164,151.72398020669564,5.5450043183673525,30.34479604133913,3.94999074,-3.125955780000004,-0.516634074000004,True,0.38860000000000006
mp-9565,Ca1 Mg2 Sb2,5,Trigonal,164,142.56862600204394,3.8693250942121313,28.51372520040879,4.20916408,-3.480408428000001,-0.77549995,False,0.7931
mp-11168,Ca3 P6 Ir6,15,Trigonal,154,268.6010405428199,9.02213605303809,17.90673603618799,6.92787877,-26.969415418,-1.017184773190479,False,0.494299999999999
mp-17998,Ca4 Rh8 O16,28,Orthorhombic,62,304.4467683733114,6.760837807742771,10.873098870475406,5.12292689,-7.010800444285709,-1.792791924285709,False,0.823399999999999
mp-9125,Ca1 Sb2 O6,9,Trigonal,162,120.22267125254261,5.243032151053256,13.358074583615846,3.05302669,-6.809987753333334,-2.370946821111111,False,2.6942999999999993
mp-17597,Ca4 Sc8 S16,28,Orthorhombic,62,583.7191536896634,2.93863183336667,20.84711263177369,3.95506285,-11.10525203892857,-2.251642790535714,False,1.286299999999998
mp-1194132,Ca4 Tm8 S16,28,Orthorhombic,62,641.2635030406094,5.243245762081028,22.90226796573605,3.13495103,-18.04018402642857,-2.408700225178571,False,1.567899999999999
mp-18642,Ca4 Y8 S16,28,Orthorhombic,62,665.6042868605462,3.454275226819853,23.771581673590934,3.05978268,-13.807282658571427,-2.406498094464286,True,1.5361
mp-9571,Ca1 Zn2 As2,5,Trigonal,164,104.4424662256155,5.099458017771371,20.8884932451231,3.57802312,-3.428630062000002,-0.6555636290000021,False,0.38730000000000003
mp-1029258,Ca1 Zn2 N2,5,Trigonal,164,61.61277667789498,5.360849603333454,12.322555335578995,3.68786638,-4.7625987819999995,-0.5222702640000001,True,0.6376000000000001
mp-9569,Ca1 Zn2 P2,5,Trigonal,164,95.13198596757287,4.064308802915232,19.026397193514576,4.1873473,-3.7711047860000013,-0.6998979558571421,False,0.875
mp-1214215,Ca22 Al2 Sb18,42,Orthorhombic,45,1249.4495216673984,4.156311906099654,29.748798134938056,5.5469076600000005,-4.058989809047618,-1.060504777142854,True,1.176599999999999
mp-1214384,Ca22 Ga2 Sb18,42,Orthorhombic,45,1247.1055707590785,4.277945493071594,29.69298977997806,5.36613308,-4.021888311666673,-1.057568984880958,False,1.0841
mp-29722,Ca22 In2 Sb18,42,Orthorhombic,45,1265.6504921679227,4.333592653083109,30.134535527807685,4.69291544,-4.006524724047619,-1.055011220079364,False,0.8472000000000001
mp-1198370,Ca44 Sn12 C32,88,Monoclinic,14,1953.3615575674826,3.036782609760906,22.197290426903212,3.89929658,-5.253561930454546,-0.348123831136363,True,0.6589
mp-567799,Ca56 Al4 Sb44,104,Tetragonal,142,3151.6120345580803,4.062148074097154,30.303961870750772,4.92949548,-4.04590373576923,-1.075019589999998,True,0.5897
mp-568790,Ca56 Ga4 As44,104,Tetragonal,142,2626.390529380468,3.679583223171533,25.253755090196805,3.44788096,-4.3159546875,-1.1437299875,True,0.597399999999999
mp-532160,Ca56 Mn4 P44,104,Orthorhombic,45,2403.495655777625,2.643993156133453,23.110535151707932,3.91188717,-4.776517994711538,-1.053032518134708,False,0.009500000000000001
mp-734733,Ca19 Mg8 H54,81,Cubic,204,898.6428411237573,1.8669562936160422,11.094356063256264,0.90181539,-3.454301708641975,-0.5593739860185181,False,2.9263
mp-1214964,Ca42 Cd8 Bi36,86,Monoclinic,12,2733.565842329271,6.138931213900644,31.78564932941013,4.25364765,-3.4659246266279062,-0.7687558866279071,False,0.15200000000000002
mp-1194550,Ca42 Zn8 As36,86,Monoclinic,12,2100.188055789882,3.8771899060362953,24.42079134639398,3.37145668,-4.131416094767442,-1.079816617906977,True,0.9742000000000001
mp-1194667,Ca42 Zn8 Sb36,86,Monoclinic,12,2479.5069766241713,4.413296587775044,28.831476472374085,4.35810602,-3.834070302209302,-1.008986715232557,True,0.6327
mp-1196891,Ca8 Al8 Sn8 O36,60,Orthorhombic,60,763.4642900505067,4.485154432472124,12.724404834175113,3.44166436,-7.225575339500001,-2.955365727833334,True,2.8373
mp-1251643,Ca8 Al4 V4 O20,36,Orthorhombic,46,446.55240729843234,3.54121537768324,12.404233536067565,4.6182869,-7.794739939444445,-3.174685863333334,False,1.610399999999999
mp-581887,Ca4 As8 Xe10 F68,90,Monoclinic,14,1573.7841209441124,3.549974828054451,17.48649023271236,-3.7409054,-4.112633515888889,-2.158332593888889,False,2.868699999999999
mp-28554,Ca2 As1 I1,4,Trigonal,166,124.72406056853306,3.754225457232024,31.181015142133266,3.21872627,-4.05167462,-1.500340893124999,False,1.5566
mp-10233,Ca8 B4 N8 F4,24,Orthorhombic,62,340.9576358270322,2.687949105707024,14.206568159459676,2.47755298,-6.959736347083333,-2.07956978111111,True,2.9265
mp-867799,Ca2 Bi1 Au1,4,Cubic,225,109.39602278856002,7.378631780561953,27.349005697140004,4.55891106,-31.71245728,-0.9215019562500011,True,0.0002
mp-23009,Ca2 Br1 N1,4,Trigonal,166,81.78438172411364,3.534226822416866,20.44609543102841,3.02479034,-5.1318830375,-1.635277027499999,True,2.4254000000000002
mp-1095180,Ca4 Cd2 As4,10,Orthorhombic,36,255.47983892331854,4.451118462408131,25.547983892331853,3.05689661,-3.782338068999999,-0.9200470659999991,True,0.8529999999999991
mp-1078908,Ca4 Cd2 P4,10,Orthorhombic,36,238.46919164893384,3.544535939395362,23.846919164893386,3.41336496,-4.052944775,-0.8925133748571411,True,1.2927
mp-569267,Ca8 Cd4 Sb8,20,Orthorhombic,62,598.468777708218,4.8399483943635015,29.9234388854109,4.30574164,-3.5005151455,-0.854672659499999,False,0.318999999999999
mp-552051,Ca8 Co4 Te4 O24,40,Monoclinic,14,486.8205909205243,4.9484644702621985,12.170514773013107,4.04800759,-6.7523075425000005,-2.354738702166666,False,1.6102999999999992
mp-19161,Ca4 Co2 W2 O12,20,Monoclinic,14,242.2213679890244,5.743855897367988,12.11106839945122,3.40898374,-7.995985204999999,-2.6169339309999993,False,1.2029
mp-772813,Ca8 Cu8 O20,36,Orthorhombic,33,464.7531201547575,4.105246622350272,12.909808893187709,2.27155718,-6.175546773611112,-2.070055870833334,True,0.9862000000000001
mp-22113,Ca8 Fe8 O20,36,Orthorhombic,62,445.08680725058156,4.056789948641229,12.363522423627266,3.65982951,-7.532973270833334,-2.456190248055555,True,0.8630999999999991
mp-1205964,Ca2 Fe1 H6,9,Cubic,225,85.46202290219544,2.760024956902113,9.49578032246616,2.1178021,-4.301175269999992,-0.650928647499992,False,1.500299999999999
mp-20431,Ca8 Fe4 Sb4 O24,40,Monoclinic,14,483.28205134360906,4.8619888213575475,12.082051283590227,3.42939629,-7.17543798475,-2.54563916075,False,1.4857
mp-1009755,Ca2 Ge1,3,Cubic,225,92.82338181597505,2.733403182004593,30.941127271991686,2.24776906,-10.031135463333333,-0.7149471366666661,False,0.5756
mp-540773,Ca8 Ge4 S16,28,Orthorhombic,62,714.7457781958501,2.611862746949705,25.526634935566076,1.78834108,-5.279912146071429,-1.681674162499999,False,2.5311
mp-1207196,Ca2 H6 Os1,9,Cubic,225,94.46925569178532,4.859029058512585,10.496583965753924,1.72985672,-10.46427751,-0.7095563258333341,False,2.7001
mp-1079896,Ca2 H6 Ru1,9,Cubic,225,93.0545451682951,3.341859280510864,10.339393907588345,1.635605749999999,-7.402281727777778,-0.7098598275000001,False,2.4473000000000003
mp-24119,Ca8 H4 N4,16,Cubic,227,256.6767430548098,2.462779663361686,16.04229644092561,2.34437984,-7.61075007375,-0.9456374556250001,False,1.6356000000000002
mp-28553,Ca4 I2 N2,8,Hexagonal,194,183.04477558744142,4.010938536209053,22.880596948430178,3.7703067900000002,-4.82661147,-1.358238939999999,False,2.348499999999999
mp-1227569,Ca4 La2 Ru2 O12,20,Triclinic,2,272.6117448204443,5.069455722028198,13.630587241022216,4.43774528,-7.65140567,-2.8604681265,False,0.42849999999999905
mp-18893,Ca2 Mn3 O8,13,Monoclinic,12,149.70349076986702,4.137001121818306,11.515653136143616,2.06815609,-7.884737693076923,-2.416973564137931,False,1.501399999999999
mp-19108,Ca4 Mn2 W2 O12,20,Monoclinic,14,250.93195879078363,5.491593953711478,12.546597939539181,3.60633279,-8.3594554135,-2.777544282293102,False,2.1817
mp-22936,Ca2 N1 Cl1,4,Trigonal,166,76.19094355059086,2.824901798883635,19.047735887647715,3.34110822,-9.1360318725,-1.796587630312501,True,2.371
mp-685352,Ca48 N24 F24,96,Monoclinic,8,1534.5722977021555,2.9388008575083813,15.98512810106412,3.22712154,-5.830063475729166,-2.264231005729166,True,1.1658
mp-1214115,Ca8 Nb4 Cr4 O24,40,Monoclinic,14,477.66504802010854,4.464418512280445,11.941626200502714,2.9883217,-8.461175593499998,-3.115843763499999,False,2.7637
mp-1214121,Ca8 Nb4 Fe4 O24,40,Monoclinic,14,483.83287627080546,4.4603452641282715,12.095821906770137,2.59932177,-8.168724696,-2.941695491999999,False,2.087099999999999
mp-1029832,Ca8 Nb4 N12,24,Orthorhombic,64,377.20489298742876,3.787361905648622,15.716870541142866,3.02312078,-12.299592108333334,-1.2667730977083331,True,1.783599999999999
mp-1227481,Ca4 Nd2 Ru2 O12,20,Monoclinic,7,268.65831785907443,5.210023698192301,13.432915892953721,3.23825478,-7.603235958499999,-2.829084382249999,False,0.499299999999999
mp-19114,Ca4 Ni2 W2 O12,20,Monoclinic,14,239.83055131513552,5.797794515487967,11.991527565756776,3.2293884,-7.8519041430000005,-2.6081808730000002,False,2.933
mp-23040,Ca2 P1 I1,4,Trigonal,166,119.46901919986469,3.308515831731006,29.867254799966172,3.35873213,-4.241553335000001,-1.503881859910714,False,1.6997
mp-8977,Ca8 P4 N12,24,Orthorhombic,64,301.6416344713868,3.372363756628859,12.568401436307783,5.13734734,-9.769450995833333,-1.358631708204366,False,2.601800000000001
mp-21137,Ca4 Pb2 O8,14,Orthorhombic,55,194.27563298010114,6.006274384912787,13.876830927150081,3.16937314,-6.481919202857138,-2.551106224285708,False,1.4813
mp-1227629,Ca4 Pr8 Mo12 O42,66,Orthorhombic,43,894.27995960991,5.7763247045437875,13.549696357725908,4.14104698,-8.610699503939394,-2.787239887020201,False,0.19340000000000002
mp-8710,Ca2 Pt3 O8,13,Trigonal,166,172.94002035294054,7.618115266071504,13.303078488687733,3.15412685,-6.555921816153841,-1.8014381423076862,False,1.1236
mp-16280,Ca4 Sb4 O14,22,Orthorhombic,74,280.138601912242,5.164943632742013,12.733572814192819,3.97508298,-6.858532448181814,-2.5944479686363593,False,1.743399999999999
mp-29284,Ca8 Sb8 S20,36,Monoclinic,14,927.6667855991934,3.465479550415696,25.768521822199816,3.92799145,-5.034094916111112,-1.371761574166666,True,1.6811999999999991
mp-1009733,Ca2 Si1,3,Cubic,225,92.16840794612506,1.95011765292123,30.722802648708353,2.496404,-8.15104167,-0.534257671666667,False,0.320999999999999
mp-22735,Ca8 Sn4,12,Orthorhombic,62,384.80664678482026,3.432630540845451,32.06722056540169,4.06137784,-3.320879080833331,-0.647288542499997,False,0.055900000000000005
mp-866229,Ca2 Sn1 Hg1,4,Cubic,225,112.21745015450223,5.910954958204039,28.054362538625558,4.31302333,-2.742137769999999,-0.659526856875,False,0.14850000000000002
mp-1029915,Ca8 Sn4 N8,20,Orthorhombic,64,350.88616863398414,4.294750158701805,17.544308431699207,5.20263046,-5.744197605,-0.804732184,True,0.024199999999999004
mp-4747,Ca4 Sn2 O8,14,Orthorhombic,55,183.48321291778336,4.75787697463859,13.105943779841668,3.35927175,-6.85927901142857,-2.88604820642857,False,2.7198
mp-866503,Ca8 Sn4 S16,28,Orthorhombic,62,753.8747135589316,2.882205718964618,26.924096912818985,2.04075912,-5.188369027500001,-1.677767615357142,True,2.2605
mp-1214103,Ca8 Ta4 Cr4 O24,40,Monoclinic,14,477.1088044147844,5.695309033987622,11.92772011036961,3.14902149,-8.755213184499999,-3.233319104233332,False,2.7922000000000002
mp-1366540,Ca4 Ta2 Mo2 O12,20,Monoclinic,11,255.18937165456256,5.895943697073266,12.759468582728129,6.07289906,-8.724915427,-3.083761082733332,False,1.4283000000000001
mp-1029773,Ca8 Ta4 N12,24,Orthorhombic,64,376.97051470471916,5.340992901872447,15.707104779363299,3.10027895,-16.394883080833335,-1.38577105976389,True,1.9488999999999992
mp-1373426,Ca4 Ta2 V2 O12,20,Monoclinic,11,241.71033167533838,5.606457215118991,12.08551658376692,5.16572842,-8.719594647000001,-3.254614706733334,False,0.43149999999999905
mp-1397126,Ca2 Ti3 O8,13,Monoclinic,12,160.77123140841795,3.633101922188258,12.367017800647535,1.93410682,-8.731400796923076,-3.5559112699999993,False,2.7744
mp-27614,Ca4 V4 O14,22,Triclinic,2,291.0915051542013,3.354658337289996,13.231432052463695,0.8600688200000001,-8.073052690454546,-2.908076423636363,False,2.9553000000000003
mp-1284741,Ca2 V3 O8,13,Monoclinic,12,156.83159992241414,3.822024721037193,12.063969224801088,2.44184176,-8.312308246153846,-2.8625693223076922,False,1.496299999999999
mp-17892,Ca8 V4 N12,24,Monoclinic,15,337.9581724078324,3.4024155814066632,14.081590516993018,3.34883957,-10.672252309166666,-1.413516451874999,False,1.651199999999999
mp-571306,Ca4 Zn4 Cu2 P6,16,Hexagonal,194,305.0411009064921,4.000448518390185,19.065068806655756,5.22045187,-4.12228686125,-0.76274758299107,False,0.27780000000000005