material_id,composition,nsites,crystal_system,space_group,volume,density,density_atomic,efermi,energy_per_atom,formation_energy_per_atom,is_gap_direct,band_gap
mp-9127,Ba1 Sb2 O6,9,Trigonal,162,142.98032483777925,5.537944435702883,15.88670275975325,1.92110029,-6.806295256666668,-2.376879317777779,False,2.8606
mp-28129,Ba8 Sb16 S32,56,Monoclinic,14,1539.5412713964797,4.392955633142289,27.49180841779428,3.82856717,-4.93855359017857,-1.119922777321425,False,1.5472000000000001
mp-4727,Ba8 Sb16 Se32,56,Monoclinic,14,1739.424009106401,5.320731343873672,31.06114301975716,3.2878056,-4.517261047857143,-1.065743429196428,False,1.1026999999999991
mp-17501,Ba4 Sc8 Te16,28,Orthorhombic,62,914.0044487735435,5.360490688799092,32.64301602762655,4.68732999,-5.521752495000003,-1.642161534523812,True,0.5092999999999991
mp-1194376,Ba4 Sm8 S16,28,Orthorhombic,62,758.484207475464,4.959232574236378,27.088721695552287,2.36256696,-6.384296911071431,-2.39721327107143,True,1.759
mp-1193757,Ba4 Sm8 Se16,28,Orthorhombic,62,853.1175320507592,5.869572565424152,30.468483287527114,2.04067517,-5.856283884999998,-2.236313439196427,True,1.4344000000000001
mp-17786,Ba4 Sm8 Te16,28,Orthorhombic,62,1048.678929990815,6.007304051063043,37.452818928243396,3.58761432,-5.213629962500001,-1.7951484220238112,False,0.7957000000000001
mp-1029616,Ba12 Ta24 N48,84,Cubic,205,1448.3069495959514,7.6393771611716765,17.241749399951804,4.67646661,-9.7097841225,-1.280363978880952,False,2.658
mp-1193223,Ba4 Tb8 S16,28,Orthorhombic,62,730.5026411061918,5.304956008428256,26.089380039506853,2.54056307,-6.384383673214286,-2.420363607976189,True,1.7379
mp-17153,Ba4 Tb8 Te16,28,Orthorhombic,62,1015.4809446590862,6.315744283024655,36.26717659496736,3.82479239,-5.18236612285714,-1.786948157142854,True,1.2848
mp-1193579,Ba4 Tm8 S16,28,Orthorhombic,62,701.2234122019127,5.716074406100827,25.04369329292545,2.61216412,-6.340953828928572,-2.421322947500002,True,1.7438999999999991
mp-1193169,Ba4 Tm8 Se16,28,Orthorhombic,62,793.4836179284227,6.621662694958519,28.33870064030081,2.27284494,-5.782077959642858,-2.229560272410717,True,1.380399999999999
mp-18196,Ba4 Tm8 Te16,28,Orthorhombic,62,981.5586898885284,6.669472607727202,35.05566749601887,3.85972474,-5.106528029642858,-1.755499247738097,True,1.3203
mp-1029918,Ba12 V24 N48,84,Cubic,205,1307.9301739553873,4.49796709390414,15.570597308992706,3.64480799,-8.747864496309523,-1.113593344880951,False,1.562399999999999
mp-29036,Ba4 Y8 S16,28,Orthorhombic,62,725.9437568605377,4.056958167744675,25.926562745019204,2.69894626,-6.913243349285715,-2.4145867478571432,True,1.7564000000000002
mp-1193099,Ba4 Y8 Se16,28,Orthorhombic,62,818.8175984044426,5.118428248655952,29.243485657301523,2.27395476,-6.372303429642857,-2.240760022410714,True,1.4872
mp-17872,Ba4 Y8 Te16,28,Orthorhombic,62,1010.3383372861468,5.427248325634622,36.083512045933816,3.81008631,-5.7178174039285725,-1.787762902023809,True,1.293499999999999
mp-7427,Ba4 Zn8 As8,20,Orthorhombic,62,467.19634427852776,5.942561357577934,23.359817213926387,3.50575622,-3.4289543554999993,-0.6732129104999991,True,0.2974
mp-1228784,Ba10 I1 Br4 N5,20,Trigonal,166,617.3763433846691,5.08300417534274,30.868817169233456,2.53266621,-4.81436123,-1.366714386,True,1.125899999999999
mp-1197065,Ba13 Si6 Sn8 As22,49,Tetragonal,121,1475.5481693623278,5.122372626479346,30.113227946169957,3.78134911,-4.6021506559183685,-0.677296513979593,False,0.7270000000000001
mp-530714,Ba56 Al4 Sb44,104,Tetragonal,142,4215.460322044558,5.182237728287287,40.53327232735152,3.61815167,-4.03529152375,-1.111051576442307,False,0.7923999999999991
mp-620609,Ba30 Zr28 Se84,142,Trigonal,167,4240.448496875847,5.210847801987258,29.862313358280613,2.80252441,-6.100547098380281,-1.9416637887808101,True,0.2641
mp-30001,Ba32 Nb10 N38,80,Triclinic,2,1753.9822152091185,5.543816440321997,21.92477769011398,2.57793927,-7.008725390249999,-1.017790355374999,False,1.7770000000000001
mp-1197806,Ba16 Re6 O37,59,Monoclinic,12,996.7652806491823,6.507866948841855,16.894326790664106,3.43697739,-7.681543673389831,-2.792275173898305,False,1.511199999999999
mp-1229199,Ba17 Sr1 Sm12 Cl68,98,Tetragonal,83,2770.9127840917545,3.977570492885069,28.274620245834228,4.97912636,-5.012513888163266,-2.80191239744898,True,0.006199999999999001
mp-644875,Ba8 In20 As20,48,Orthorhombic,62,1395.692545360627,5.821980764906506,29.076928028346398,4.7945893900000005,-3.939258775208335,-0.5238895036111121,True,0.22130000000000002
mp-1215155,Ba84 Cd16 Bi72,172,Orthorhombic,64,7131.810149222151,6.6080207567456615,41.464012495477625,3.1701414,-3.508279585523255,-0.8534160487790701,True,0.32220000000000004
mp-684034,Ba84 Cd16 Sb72,172,Orthorhombic,64,6754.249602401213,5.43349508591745,39.26889303721636,3.370863029999999,-3.8106922503488363,-1.055796045232557,False,0.731399999999999
mp-561318,Ba6 Al3 Cu6 F33,48,Trigonal,145,684.3541981161051,4.642080055490678,14.257379127418856,0.49373184000000003,-5.545349329166666,-3.243204630729166,True,0.843399999999999
mp-556282,Ba8 Al4 In4 O20,36,Hexagonal,194,609.13961852121,5.413376434001932,16.9205449589225,3.03224632,-6.771036568055556,-2.872980514907408,True,2.0183
mp-28134,Ba16 As16 S40,72,Orthorhombic,29,1982.7551731299538,3.918265344205699,27.53826629347158,2.71553736,-5.131772555972223,-1.368440024583332,True,1.6148999999999991
mp-28348,Ba8 As8 Se20,36,Monoclinic,4,1093.5568719974654,4.976330148320431,30.37657977770737,2.17423041,-4.70128584277778,-1.294868916857641,False,1.155
mp-861937,Ba2 As1 Au1,4,Cubic,225,129.11914995823278,7.028815039925321,32.279787489558196,2.90434713,-3.8916354650000002,-0.9461468618750001,False,0.5211
mp-30105,Ba8 B16 Se52,76,Monoclinic,14,1938.9218904990878,4.605429852984838,25.512130138145892,2.2184044800000002,-4.876477554999999,-0.876353019586073,True,1.332999999999999
mp-568923,Ba24 B12 N24 Cl12,72,Cubic,214,1647.835984961692,4.219455527500701,22.88661090224572,1.89414958,-6.475887993055555,-1.635481336249999,False,2.7533000000000003
mp-28670,Ba4 Bi4 O10,18,Monoclinic,14,341.11013077776954,7.522216207949441,18.950562820987198,2.97320869,-6.328183767222226,-2.288425597777783,False,2.012899999999999
mp-1104988,Ba4 Bi4 Se6 O4,18,Monoclinic,14,501.87848812774547,6.362487027654726,27.882138229319192,4.02676481,-5.378979716666667,-1.823238056336805,False,1.419299999999999
mp-862947,Ba2 Bi1 Au1,4,Cubic,225,147.75546537595042,7.648884560139377,36.938866343987605,3.16433616,-3.615851409999997,-0.865384862499998,False,0.422799999999999
mp-23127,Ba2 Bi1 Sb1 O6,10,Monoclinic,12,162.47784885143284,7.168280676948144,16.247784885143282,4.18559859,-6.607482318999999,-2.453007172999998,False,1.6958000000000002
mp-1018098,Ba2 Br1 N1,4,Trigonal,166,119.42436611590482,5.124717030741697,29.856091528976204,2.41621929,-4.86481195,-1.41151841,True,1.1377
mp-17380,Ba4 Ca2 Pd6 O12,24,Orthorhombic,69,393.39379947616953,6.162650544970049,16.391408311507064,2.58720544,-6.274936545416666,-2.019023110416666,False,1.4866000000000001
mp-1214858,Ba16 Ca8 Mo8 N32,64,Orthorhombic,61,1260.3657409439427,4.919026689220734,19.693214702249104,4.82194531,-7.3555852203125,-1.100296364062501,False,2.412699999999999
mp-19403,Ba2 Ca1 Mo1 O6,10,Cubic,225,153.56571582872633,5.478714226488384,15.356571582872633,2.369640689999999,-7.539842310999999,-2.9021457209999992,False,2.258
mp-1520564,Ba2 Ca1 Se1 O6,10,Cubic,225,143.5908969776417,5.6629405886883,14.359089697764169,2.97153411,-6.452516751,-2.549794024234375,True,2.01
mp-550685,Ba2 Ca1 Te1 O6,10,Cubic,225,154.00023183896883,5.804636318956966,15.400023183896883,3.089568599999999,-6.6543824659999995,-2.786920297666666,True,2.9976000000000003
mp-557448,Ba4 Ca2 U2 O12,20,Monoclinic,14,337.1538572711704,6.39047624557279,16.85769286355852,2.66130363,-8.232708689999999,-3.550436109999999,False,2.1948
mp-1102943,Ba2 Cd1 B2 O6,11,Monoclinic,12,158.3624123132637,5.291953372791124,14.396582937569427,1.65105378,-7.165088234545454,-2.815587358030302,True,2.821899999999999
mp-1079666,Ba4 Cd2 As4,10,Orthorhombic,36,332.4173735799118,5.364082097613705,33.24173735799118,2.39171248,-3.7583438149999973,-0.9307027879999971,True,0.39029999999999904
mp-1214739,Ba4 Cd2 Ge4 O14,24,Tetragonal,113,419.80637208506045,5.097364603067555,17.491932170210852,0.40767837,-6.561289418333334,-2.504644183749999,False,2.9166
mp-1207118,Ba2 Cd1 Mo1 O6,10,Cubic,225,152.17224725980637,6.318198368159635,15.217224725980637,2.17339806,-7.002457366,-2.469319745,False,2.5376000000000003
mp-18309,Ba8 Cd4 S12,24,Orthorhombic,62,690.3125667328919,4.649905842641991,28.763023613870498,1.86488532,-4.717959141666668,-1.8491193462500002,True,2.0892
mp-1205643,Ba2 Ce1 Pa1 O6,10,Cubic,225,184.86334313045163,6.663255379752162,18.486334313045163,6.6743686,-8.541068808,-3.640372512,False,0.016199999999999
mp-1228392,Ba2 Ce1 Pb1 O6,10,Trigonal,148,170.76873246930134,6.981437634787639,17.076873246930134,3.0026868,-7.191365368,-2.8738340829999993,False,2.3054
mp-21879,Ba2 Ce1 Pt1 O6,10,Cubic,225,154.26394370884378,7.597965773437191,15.426394370884378,3.83939604,-7.353921987,-2.800542076999999,False,1.420399999999999
mp-1521094,Ba2 Ce1 Sn1 O6,10,Cubic,225,162.30800115493082,6.440040825251537,16.230800115493082,3.40939454,-7.46291288,-3.1156891165,False,2.144399999999999
mp-1190827,Ba8 Co4 Ge8 O28,48,Tetragonal,113,814.2056759797608,4.8201633329324505,16.962618249578348,2.12935155,-7.062682656250001,-2.4915868775,True,2.124
mp-16887,Ba8 Co4 O16,28,Monoclinic,14,479.1449570833152,5.511526936670681,17.112319895832687,1.92898661,-6.723713994285716,-2.328969620000002,False,0.3179
mp-17520,Ba8 Cr4 O16,28,Orthorhombic,62,479.5301900538086,5.411010865068971,17.12607821620745,4.20873835,-7.4865857257142725,-2.731894101428558,True,1.9086999999999992
mp-558012,Ba8 Cu4 P24 O72,108,Monoclinic,14,1549.3255861107816,3.481283709026693,14.345607278803534,1.32963239,-7.535377842685186,-2.739329850383598,False,1.1062
mp-9372,Ba2 Cu1 P2 O8,13,Monoclinic,12,209.48442845147213,4.186476448036815,16.114186803959395,1.78836841,-7.363336575384616,-2.874737218406594,False,0.258499999999999
mp-772788,Ba8 Cu8 O20,36,Orthorhombic,33,618.7637569663804,5.171298819976283,17.18788213795501,1.1042951,-6.0124654175,-1.9262245013888881,False,0.7110000000000001
mp-552934,Ba2 Cu1 Br1 O2,6,Trigonal,166,161.29466248966747,4.633837672303171,26.88244374827791,1.4944861,-5.610883309999999,-2.365879127499999,False,2.307299999999999
mp-551456,Ba2 Cu1 Cl1 O2,6,Trigonal,166,156.03718556296457,4.316923936472801,26.006197593827427,1.6352683,-5.730044841666667,-2.449774615,False,2.3029
mp-3879,Ba4 Cu2 F12,18,Orthorhombic,64,274.2991648015784,5.474897141352942,15.238842488976578,0.69114755,-5.549511331111102,-3.391703464444434,False,0.8501000000000001
mp-561179,Ba8 Cu4 I4 O8,24,Monoclinic,11,695.8225789033339,4.745229171899484,28.99260745430558,1.820395309999999,-5.457140619166665,-2.230958756666665,False,2.2608
mp-1045817,Ba4 Cu2 Mo4 F28,38,Monoclinic,15,621.2761991283428,4.255385351348095,16.34937366127218,0.7921969400000001,-6.032950252368421,-3.063350777631579,False,1.4195
mp-1516815,Ba8 Dy4 Bi4 O24,40,Cubic,201,659.7170939306706,7.471913020077768,16.492927348266765,2.36282337,-7.031215286,-2.827802711166666,True,1.733099999999999
mp-12640,Ba2 Dy1 Nb1 O6,10,Cubic,225,156.79671133235095,6.630188428482101,15.679671133235095,2.02778421,-8.283141384,-3.458601736166666,True,2.8514
mp-1205693,Ba2 Dy1 U1 O6,10,Cubic,225,167.43435632644434,7.648211512289129,16.743435632644434,5.32664326,-8.599756791,-3.656206646166667,False,0.8682999999999991
mp-6653,Ba2 Er1 Nb1 O6,10,Cubic,225,154.67319921611963,6.7723060738798235,15.467319921611963,2.06806208,-8.299404884000001,-3.479930908,True,2.854199999999999
mp-6621,Ba2 Er1 Ru1 O6,10,Cubic,225,148.6889622359816,7.136039155136842,14.86889622359816,3.15684303,-7.602358978,-2.8655752519999993,True,0.07160000000000001
mp-1206292,Ba2 Er1 U1 O6,10,Cubic,225,168.2717217241136,7.657114717938615,16.82717217241136,5.26082578,-8.615758887,-3.677274413999998,False,0.8790000000000001
mp-1205758,Ba2 Eu1 Mo1 O6,10,Cubic,225,155.88125748065568,6.589206185642854,15.588125748065568,3.8472610400000002,-8.334601781999998,-2.8686539884999993,True,0.047900000000000005
mp-1288978,Ba4 Fe2 Mo2 O12,20,Monoclinic,15,275.57648782293916,6.296069728794797,13.778824391146959,3.8448601,-7.785249331,-2.5011106080000003,False,0.9037000000000001
mp-542120,Ba8 Fe4 O16,28,Monoclinic,14,477.32793448863526,5.489534289608774,17.047426231736974,1.36517694,-6.978271274999999,-2.392583402142856,True,1.9953999999999992
mp-18421,Ba8 Ga8 S20,36,Monoclinic,15,958.5632011444919,3.9803537302197043,26.626755587347,1.83093724,-5.065984051666667,-1.667546300277777,True,2.8977
mp-1195309,Ba8 Ga4 As4 Se20,36,Orthorhombic,62,1099.0109011748523,4.920215178645581,30.528080588190342,3.45754671,-4.662965517777778,-1.438995981857638,False,1.870299999999999
mp-1201906,Ba8 Ga4 Bi4 S20,36,Orthorhombic,62,1012.5076926285598,4.681831120781826,28.12521368412666,4.5695669,-5.066465223888889,-1.572256551666666,False,2.391
mp-1203584,Ba8 Ga4 Bi4 Se20,36,Orthorhombic,62,1127.5073101089654,5.585604243519177,31.319647503026815,1.89376407,-4.630743704999999,-1.493450638246527,False,1.7506
mp-1199702,Ba16 Ga8 S32,56,Monoclinic,14,1563.0219779321199,4.016998936170856,27.911106748787855,2.14280871,-5.143516521071429,-1.7978759249999992,True,1.8917000000000002
mp-1203806,Ba8 Ga4 Sb4 S20,36,Orthorhombic,62,1011.0286662432618,4.115668168364566,28.084129617868385,4.75547876,-5.081539605833333,-1.5607790524999992,False,2.396699999999999
mp-1203387,Ba8 Ga4 Sb4 Se20,36,Orthorhombic,62,1123.3205372351147,5.090691303125992,31.203348256530962,2.09590984,-4.640931476666667,-1.477086528802083,True,1.806699999999999
mp-1202971,Ba4 Gd4 Si8 O26,42,Monoclinic,15,592.239294188705,5.1001029534204,14.100935575921548,3.00207531,-9.150969896666666,-3.5312099183333343,False,0.12249999999999901
mp-1520715,Ba8 Gd4 Bi4 O24,40,Cubic,201,673.7089537013594,7.264973096200619,16.842723842533985,2.40634648,-7.94615881575,-2.79697156975,False,1.5940999999999992
mp-29084,Ba8 Gd4 Cl28,40,Monoclinic,14,1148.7060904993195,3.932393551520615,28.71765226248299,3.61327059,-5.957994209499999,-2.872607037499999,False,1.561499999999999
mp-1079839,Ba2 Gd1 Mo1 O6,10,Triclinic,2,158.00130671201794,6.556346761178886,15.800130671201794,3.60971201,-8.885329848,-3.040581021999999,True,0.9083000000000001
mp-22531,Ba2 Gd1 Nb1 O6,10,Tetragonal,87,158.54151124740073,6.50223340807881,15.854151124740074,2.08379471,-9.194270486,-3.423956167000001,True,2.71
mp-2646935,Ba4 Gd2 Ru2 O12,20,Monoclinic,12,306.14197904266683,6.823173510546011,15.307098952133341,3.12422269,-8.505765741000001,-2.8181416720000003,True,0.14670000000000002
mp-1205845,Ba2 Gd1 U1 O6,10,Cubic,225,174.3554687281598,7.294612269902189,17.43554687281598,5.06800426,-9.507937991999999,-3.6186131759999993,False,0.8429000000000001
mp-570803,Ba4 Ge2 Te4 Se4,14,Monoclinic,11,496.41091141803906,5.08730620035153,35.45792224414565,2.82781863,-4.576965381428571,-1.471335027574403,True,0.8477000000000001
mp-18335,Ba8 Ge8 Se20,36,Orthorhombic,62,1102.0495721851778,4.910478330678781,30.612488116254937,2.06466725,-4.78252212,-1.386570677968749,False,1.4401000000000002
mp-17885,Ba8 Ge8 Te20,36,Orthorhombic,33,1281.28457912682,5.484310872083083,35.591238309078335,3.45600221,-4.2870439508333344,-1.086984500092593,False,0.6240999999999991
mp-1190188,Ba4 Ge10 Ir8,22,Orthorhombic,63,462.5186048797073,10.100855672403556,21.023572949077604,6.07488466,-6.233429069090909,-0.5691721713636361,False,0.201299999999999
mp-8195,Ba8 Ge4 As8,20,Monoclinic,14,644.061635388971,5.126936284981981,32.20308176944855,2.95775852,-4.449578873500002,-0.889334313500002,False,0.578599999999999
mp-8194,Ba8 Ge4 P8,20,Monoclinic,14,606.6728033161835,4.480580204435174,30.333640165809175,3.33839067,-4.7091248079999986,-0.8507398508571411,False,0.6808999999999991
mp-540805,Ba8 Ge4 S16,28,Orthorhombic,62,777.9300530059315,4.060395878660701,27.78321617878327,2.09245148,-5.291810084999999,-1.718322084285712,True,2.2853
mp-11902,Ba4 Ge2 Se8,14,Monoclinic,11,445.11614607266466,4.947741946035637,31.794010433761763,1.9851878900000002,-4.829681733571427,-1.62330692705357,True,1.4121000000000001
mp-1018651,Ba2 H3 I1,6,Trigonal,164,144.70523533798794,4.642711762503339,24.11753922299799,2.33899962,-3.605200005,-1.013956369791667,False,2.2391
mp-697044,Ba2 H6 Os1,9,Cubic,225,132.4873939101363,5.902451266030814,14.720821545570699,1.41689855,-4.455324932222222,-0.517956494166666,False,1.9655
mp-643253,Ba4 H12 Pt2,18,Orthorhombic,64,264.6852918972529,5.9698114457676335,14.704738438736273,1.23788038,-4.022623613333334,-0.658170076388889,False,1.7589000000000001
mp-697038,Ba2 H6 Ru1,9,Cubic,225,131.25801509945663,4.829775326555091,14.584223899939625,1.32609141,-4.371839651111112,-0.6514673119444451,False,1.8699000000000001
mp-1200998,Ba8 H32 Pt4 O32,76,Orthorhombic,61,813.4492799491153,4.946585582034409,10.703279999330464,1.09770555,-5.711394641052632,-1.6769681805263161,True,2.4355
mp-9321,Ba2 Hf1 S4,7,Tetragonal,139,193.9978029565265,4.9765721093957715,27.713971850932356,2.54239858,-6.543291955714287,-2.20778093,False,0.8648
mp-1194545,Ba8 Hg4 S20,32,Orthorhombic,62,910.7392948649457,4.635298641314908,28.460602964529553,3.71397281,-4.551202924375001,-1.446275455000001,True,1.6693
mp-12641,Ba2 Ho1 Nb1 O6,10,Cubic,225,155.6667424207625,6.7042411640069375,15.56667424207625,2.10417728,-8.291220755000001,-3.4687507135,True,2.8516
mp-6609,Ba2 Ho1 Ru1 O6,10,Cubic,225,149.60325945917185,7.066579940576316,14.960325945917186,3.14727577,-7.595754327,-2.855974535499999,True,0.07600000000000001
mp-1205585,Ba2 Ho1 U1 O6,10,Cubic,225,169.8491761930532,7.563233697718171,16.98491761930532,5.22356714,-8.607728099000001,-3.666247560499999,False,0.8731999999999991
mp-20546,Ba4 In4 O10,18,Orthorhombic,46,310.08967785474204,6.2577470899305965,17.227204325263447,3.07737615,-6.210847717222224,-2.422391895925927,True,0.919
mp-22841,Ba16 In16 S40,72,Orthorhombic,61,2041.8946102537304,4.323902580304948,28.359647364635144,2.4523641,-4.920540953194442,-1.581863708287033,True,1.8678999999999992
mp-1523085,Ba8 In4 Bi4 O24,40,Cubic,201,639.9805500547719,7.207465052210091,15.999513751369298,3.13946406,-6.3029089055,-2.285416509166667,True,0.20800000000000002
mp-864638,Ba4 In2 Bi2 S10,18,Orthorhombic,36,508.7964737048264,4.952783993877049,28.266470761379242,3.1203671,-4.984105758888889,-1.519777339907407,False,1.452899999999999
mp-1105202,Ba4 In2 Bi2 Se10,18,Orthorhombic,36,572.0137292759063,5.766765127410662,31.778540515328125,2.6467532,-4.577538233333333,-1.470125419820601,False,1.061
mp-555212,Ba4 In2 Br2 O6,14,Tetragonal,129,292.8269888193814,5.867765636048222,20.916213487098673,2.3518391100000002,-5.8581843607142865,-2.561333907380952,False,1.8236999999999992
mp-558243,Ba4 In2 Cl2 O6,14,Tetragonal,129,280.7862199086928,5.593632403733022,20.056158564906628,2.61771162,-5.9732427221428575,-2.64616423095238,False,1.914499999999999
mp-1228360,Ba2 In1 Cu1 O4,8,Tetragonal,123,147.31341871909677,5.827877794885125,18.414177339887097,3.28503349,-6.036271109999999,-2.225249320833332,False,1.110799999999999
mp-1106089,Ba4 In2 Ga2 O10,18,Orthorhombic,46,294.7278335288981,6.075770786069299,16.373768529383227,2.80498358,-6.3890356438888904,-2.570699569351852,False,1.414499999999999
mp-19956,Ba4 In2 O6 F2,14,Tetragonal,129,253.5510420304306,5.978945637296668,18.11078871645933,2.6603006000000002,-6.20251072,-2.866102289523809,False,2.046699999999999
mp-1207040,Ba2 In1 Os1 O6,10,Cubic,225,145.03396392863104,7.736281627048708,14.503396392863104,4.86686683,-7.070979681,-2.319753972666666,True,0.42240000000000005
mp-616601,Ba6 In3 Ru3 O18,30,Trigonal,164,435.7091518642018,6.706101465350557,14.523638395473393,3.9998628,-6.838986333666668,-2.2830571143333342,False,0.3628
mp-1206536,Ba2 In1 Sb1 O6,10,Cubic,225,147.91324889979737,6.817012593862324,14.791324889979737,4.01500058,-6.577128483,-2.535739393666667,True,0.523999999999999