material_id,composition,nsites,crystal_system,space_group,volume,density,density_atomic,efermi,energy_per_atom,formation_energy_per_atom,is_gap_direct,band_gap
mp-17926,Zr6 Ni6 Sb8,20,Cubic,220,375.87005997719643,8.277222428839028,18.79350299885982,8.09654286,-6.677528467000002,-0.7275767780000011,False,0.43419999999999903
mp-1207474,Zr16 N12 O4 F20,52,Monoclinic,14,595.7949467627502,5.7738365716366165,11.457595130052889,3.47439057,-8.80074673923077,-3.129757613461538,True,2.3129
mp-29934,Zr6 Ag7 F31,44,Trigonal,148,547.2101925562514,5.739470811790817,12.43659528536935,0.71303094,-11.84563189909091,-3.143432856022727,False,2.9066
mp-29357,Zr12 C2 Cl28,42,Orthorhombic,64,1045.531637988395,3.353366936276601,24.89361042829512,2.06981723,-6.286583466190476,-2.17256115797619,False,1.2812000000000001
mp-28344,Zr12 C2 I28,42,Orthorhombic,64,1538.2682085564572,5.043396115340444,36.625433537058505,2.69711701,-5.145834423809525,-1.248165572261907,False,0.899899999999999
mp-28734,Zr6 Co1 Cl15,22,Cubic,229,541.2566211450136,3.491529279421773,24.60257368840971,2.28144485,-12.91381456090909,-1.9129251962500002,True,1.0883
mp-1207507,Zr12 Co2 I28,42,Orthorhombic,64,1625.3123406203335,4.869174362181066,38.697912871912706,4.35945111,-4.9563740461904775,-1.1584789457142861,False,0.006200000000000001
mp-28903,Zr12 Fe2 Cl28,42,Orthorhombic,64,1116.2896881800361,3.271219289706985,26.57832590904848,1.93702459,-6.155462243095235,-2.0775658530952352,False,1.150699999999999
mp-1207511,Zr12 Fe2 I28,42,Orthorhombic,64,1641.4973025604154,4.814916862958766,39.08326910858132,4.34011271,-5.044653517142857,-1.183110583809524,False,1.0127
mp-1207495,Zr12 Ge2 I28,42,Orthorhombic,64,1585.240452349397,5.020973656110216,37.74382029403326,4.78595006,-4.898251531428571,-1.219898757857143,False,0.9028
mp-1207560,Zr12 Mn2 Cl28,42,Orthorhombic,64,1118.5324121252513,3.261967425266409,26.631724098220268,1.80162526,-6.143100664523809,-2.032252175377668,False,0.15959999999999902
mp-531184,Zr48 N8 Cl120,176,Cubic,230,4929.9674980767695,2.945595306328385,28.01117896634528,1.6989044,-12.858415445852273,-2.044138829318182,True,1.4074
mp-1207498,Zr12 Si2 I28,42,Orthorhombic,64,1556.8391464765928,5.01752643607382,37.06759872563316,2.9484060100000002,-4.961655216904763,-1.245098149285715,False,1.084
mp-1207432,Zr6 Zn23 Ge1,30,Cubic,225,465.6916249498851,7.575043353234155,15.523054164996172,3.59030909,-12.171979981,-0.328160350166666,True,0.257499999999999
mp-541912,Zr2 Br2 N2,6,Trigonal,166,117.38086358244163,5.238049756165821,19.56347726374027,2.61982266,-8.076825253333334,-1.9025169500000012,False,1.4423
mp-23162,Zr1 Cl2,3,Trigonal,160,66.85297123118846,4.0270939931277,22.284323743729487,4.27076487,-13.56349559,-1.87860569,False,1.0479
mp-1100795,Zr2 Cl6,8,Triclinic,2,215.59262411948515,3.043650419266591,26.949078014935644,2.16905122,-12.2620079325,-1.960230783125,False,0.365799999999999
mp-2459069,Zr1 Cr1 F6,8,Tetragonal,139,145.67363817501348,2.931952004651235,18.209204771876685,-0.55457709,-7.303861795,-3.593379001249999,False,2.6153
mp-2767155,Zr2 Fe2 Cl12,16,Monoclinic,15,419.4819386491777,2.848467665037979,26.217621165573608,2.32389205,-10.90233658625,-1.642609844999999,False,0.335199999999999
mp-13542,Zr2 Ge2 Te8,12,Orthorhombic,36,375.2881192198177,5.966838041820205,31.274009934984807,4.98161097,-23.6503608475,-0.601916393333335,False,0.37619999999999904
mp-570506,Zr4 I8,12,Orthorhombic,31,407.6293550748252,5.622172878385403,33.9691129229021,4.56411636,-5.010594956666665,-1.145353003333332,False,0.284599999999999
mp-570188,Zr4 I12,16,Orthorhombic,59,669.8747509554491,4.679504669655121,41.86717193471557,2.58096103,-4.526845603750001,-1.246910985000001,False,0.1623
mp-571235,Zr6 I24,30,Monoclinic,13,1325.1143003803224,4.502556509294867,44.170476679344084,0.66549812,-4.156621227333331,-1.227871009333331,False,2.021
mp-23052,Zr2 I2 N2,6,Orthorhombic,59,150.08224688063964,5.136777020980983,25.01370781343994,2.77572061,-7.7564445216666655,-1.619780858333333,True,1.2172
mp-680356,Zr8 N48 O136,192,Tetragonal,88,2614.9633360690495,2.272101423217829,13.619600708692966,-1.147951009999999,-7.046156525833333,-1.100627184791666,False,1.5707
mp-568592,Zr2 N2 Cl2,6,Trigonal,166,108.66355579089965,4.29970799654982,18.11059263181661,2.50997242,-14.785401989999999,-2.108408165416667,False,1.745099999999999
mp-1207386,Zr4 N4 F4,12,Monoclinic,14,152.08396183847694,5.425615602817437,12.673663486539745,3.28378207,-9.011846874166666,-2.745236624166667,False,2.0644
mp-2713851,Zr6 Nb6 P18 O72,102,Trigonal,161,1564.4347810181016,2.987149106690143,15.33759589233433,-0.16820147,-8.590134303333334,-3.044783814740897,False,2.913599999999999
mp-924129,Zr1 Ni1 Sn1,3,Cubic,216,57.17134916589888,7.802269818135599,19.05711638863296,6.64599366,-6.796670063333333,-0.6842003416666651,False,0.49540000000000006
mp-570966,Zr4 P8 N4 Cl44,60,Orthorhombic,64,1828.7999485528683,2.023595811184872,30.479999142547804,-0.51900531,-4.7074514585,-1.504058376785714,False,2.8693
mp-31014,Zr4 P8 S28,40,Orthorhombic,70,1007.6496637969993,2.489212742148805,25.191241594924982,1.6887476700000001,-5.802369773000001,-0.96765330767857,False,1.660299999999999
mp-1186,Zr1 S2,3,Trigonal,164,71.28910063255313,3.618665179720018,23.763033544184378,1.90079098,-7.45580737,-1.8476674483333322,False,1.0418
mp-9921,Zr2 S6,8,Monoclinic,11,172.4735477620155,3.608861478892194,21.559193470251937,2.98805215,-6.8147069575,-1.574012124374999,False,1.113299999999999
mp-3519,Zr4 S4 O4,12,Cubic,198,187.38845591074283,4.937205519946814,15.61570465922857,4.00326534,-8.724789924166666,-2.846782856666665,False,2.4195
mp-1100415,Zr1 Sb1 Rh1,3,Cubic,216,62.49651265960981,8.393218007790445,20.832170886536606,6.44837843,-25.33763931,-1.1401938883333331,False,1.1648
mp-2076,Zr1 Se2,3,Trigonal,164,80.50391312521093,5.139046403440359,26.834637708403644,2.41146818,-18.704838416666664,-1.5805342943749991,False,0.3296
mp-1683,Zr2 Se6,8,Monoclinic,11,199.4116018231838,5.464371229421456,24.926450227897973,3.04578164,-17.6578893825,-1.236771233046873,False,0.39790000000000003
mp-1183042,Zr1 Si1 Ru2,4,Cubic,225,59.03160212741808,9.042266065164359,14.75790053185452,8.3293224,-21.391558655,-0.7984018825000021,False,0.2353
mp-961687,Zr1 Sn1 Pd1,3,Cubic,216,64.3981696930079,8.157346371479457,21.466056564335968,5.9540484,-24.355038833333335,-0.8695624016666691,False,0.12510000000000002
mp-17324,Zr4 Sn4 S12,20,Orthorhombic,62,497.9424921421011,4.08351704818253,24.897124607105056,3.714448179999999,-6.391487313000001,-1.397017075499999,False,0.9944000000000001
mp-28671,Zr2 Te4 Br10,16,Monoclinic,12,583.2671567272545,4.247347512059873,36.454197295453405,-0.20503201000000001,-4.145050838749999,-1.267670202291665,False,1.1062
mp-605,Zr2 Te10,12,Orthorhombic,63,428.62815700419884,5.6501418327982424,35.71901308368324,4.55240597,-25.556306336666665,-0.583654094166666,False,0.019200000000000002
mp-554326,Zr4 V8 O28,40,Cubic,205,714.2177558563346,2.837426622762128,17.855443896408367,-1.898334049999999,-8.952376780250002,-2.817252799750002,False,2.5909
mp-1014244,Zr1 Zn1 N2,4,Trigonal,156,49.25286162103453,6.225274037196338,12.313215405258633,3.73142615,-13.634793105,-1.155319141875001,False,1.99
mp-1049,Sr6 As6,12,Hexagonal,189,373.04960044513166,4.3410850957987055,31.08746670376097,2.72584486,-16.194839610833334,-1.268243582083336,False,0.0181
mp-1208723,Sr2 As4 Xe6 F36,48,Monoclinic,12,895.9858998117437,3.607701908549919,18.66637291274466,-1.05257662,-3.989240224375,-2.089634457083333,False,2.977099999999999
mp-12418,Sr4 Ca4 Ge4,12,Orthorhombic,62,367.1161260531327,3.6246740681324763,30.593010504427724,2.9367099100000003,-12.726716218333332,-0.708072101666665,False,0.43560000000000004
mp-7084,Sr4 Ca4 Si4,12,Orthorhombic,62,364.6958657711654,2.837263725320068,30.39132214759712,3.08389273,-10.845519739166667,-0.526279950833333,True,0.42239999999999905
mp-20726,Sr4 Ca4 Sn4,12,Orthorhombic,62,421.581225845191,3.882242236973088,35.13176882043258,3.5051883,-3.243670250833332,-0.6744703091666651,False,0.288199999999999
mp-1190367,Sr2 Cd2 As4 O14,22,Triclinic,2,317.5435816644355,4.830538061392911,14.433799166565251,0.97876745,-6.340243494545453,-2.101297096363635,False,2.473799999999999
mp-1193940,Sr2 Co4 As4 O16,26,Triclinic,2,350.43547138074956,4.580470649783251,13.47828736079806,1.91522518,-6.9479993446153845,-1.956984372692308,False,2.3082000000000003
mp-557093,Sr8 Cr16 O56,80,Tetragonal,137,1193.0841330142985,3.380502219293202,14.913551662678731,0.00826741,-7.656758405625001,-2.093333399125001,False,2.5156
mp-1218324,Sr2 Cr2 H2 O4,10,Tetragonal,123,116.01039743935739,4.941746187142947,11.60103974393574,3.04671421,-7.017528036,-2.09021523425,False,0.5556000000000001
mp-510607,Sr4 Cr4 O16,24,Monoclinic,14,344.433546328756,3.926545563854614,14.351397763698166,-0.01314291,-7.63836758875,-2.448814325416667,False,2.857599999999999
mp-9640,Sr2 Cu2 Se4 O12,20,Monoclinic,15,322.0915306006801,4.176795019338938,16.104576530034002,1.80618696,-5.9789677395,-1.731845364968749,False,0.7134
mp-18685,Sr3 Cu6 Ge3 S12,24,Trigonal,154,506.56796338643204,4.087151255682293,21.10699847443467,4.16293413,-4.925946589583334,-1.042533145208333,False,1.046299999999999
mp-12557,Sr2 Cu2 As2,6,Hexagonal,194,134.25629061057555,5.592695739863697,22.376048435095925,4.6657484,-14.495291576666666,-0.9286288908333321,False,0.0038000000000000004
mp-12265,Sr2 Cu2 F8,12,Tetragonal,140,169.76871354312368,4.443780052704627,14.147392795260307,0.07910223,-9.449138025,-3.033043213333332,True,0.8036000000000001
mp-21609,Sr12 Cu12 N12,36,Orthorhombic,62,641.0462447560105,5.134276473739162,17.806840132111404,3.81463053,-12.262171891944444,-0.555102644861111,True,0.264499999999999
mp-12444,Sr2 Cu2 S2 F2,8,Tetragonal,129,134.19405957745002,5.004838895047967,16.774257447181252,4.70281359,-11.568100305,-2.279729279453125,True,1.5126
mp-556067,Sr1 Fe2 P4 O14,21,Triclinic,2,267.23822845700613,3.4001176267442332,12.725629926524102,1.21883608,-7.847158199523808,-2.629738262312924,False,2.0648
mp-560149,Sr2 Fe4 Se8 O24,38,Monoclinic,10,575.575950982088,4.080219971183101,15.14673555216021,0.94420423,-6.501717126315789,-1.66005141680921,False,2.3881
mp-557942,Sr2 Fe6 P6 O26,40,Monoclinic,11,511.9626208944064,3.607190865204056,12.799065522360161,1.34785813,-7.9000196447499995,-2.516399376696429,False,0.5195000000000001
mp-18253,Sr2 Ga8 O14,24,Monoclinic,15,343.7882719362211,4.622501466368977,14.32451133067588,0.64245617,-6.5389477708333335,-2.502236169583332,True,2.434599999999999
mp-978847,Sr1 Ga1 Ge1 H1,4,Trigonal,156,76.6900483510484,5.001554805975199,19.1725120877621,3.73690702,-3.7041610775000002,-0.5194814759375,True,0.295799999999999
mp-978852,Sr1 Ga1 Sn1 H1,4,Trigonal,156,90.08198688593315,5.10724208693893,22.520496721483287,4.20085945,-3.5207949925,-0.48947939093749904,True,0.415099999999999
mp-1029497,Sr16 Ge16 N32,64,Orthorhombic,61,954.5481722454505,5.240348805716939,14.914815191335164,3.24369128,-6.45486019578125,-0.7068573370312501,True,2.4586
mp-10341,Sr1 Ge1 Te1 O6,9,Trigonal,149,126.14829113284445,5.052851231200532,14.016476792538272,1.70480685,-6.62281138,-2.273197172407407,False,2.9532
mp-1187172,Sr4 H4 N4,12,Orthorhombic,62,166.93596074617898,4.08369361627382,13.911330062181582,2.19572015,-10.065699061666667,-0.822524347499999,True,2.0279
mp-540688,Sr4 In8 O16,28,Orthorhombic,62,373.97526557229827,6.771426405573328,13.356259484724939,4.40422506,-6.212231680714282,-2.354714595476186,False,1.807999999999999
mp-558219,Sr2 Li2 B6 S12,22,Monoclinic,9,475.8441984969139,2.229089315041482,21.629281749859725,1.3112793200000001,-5.583403942272728,-1.17706906280303,False,2.91
mp-629430,Sr8 Li16 Cr8 N24,56,Orthorhombic,61,712.3911560499921,3.645925209195367,12.72127064374986,3.22585148,-6.700031609999999,-0.9602952488095231,False,0.9152000000000001
mp-16691,Sr4 Li8 Ti24 O56,92,Orthorhombic,64,1091.8228634225354,3.727362794161203,11.867639819810167,1.55754774,-8.70424322423913,-3.393170181050724,True,2.951999999999999
mp-15845,Sr2 Li8 N4,14,Tetragonal,141,194.58666118516553,2.447413232732109,13.899047227511824,0.952944599999999,-6.692535140714286,-0.5568225598809531,False,0.6182000000000001
mp-1101989,Sr4 Li4 As4,12,Orthorhombic,62,278.47997870771974,4.042408789528388,23.206664892309977,2.65784631,-11.946434766666668,-1.199801943055556,True,1.0323
mp-568385,Sr6 Li6 Ga6 N12,30,Monoclinic,12,400.72862903648297,4.781051144861461,13.357620967882765,3.04560713,-5.3887494406666665,-0.727548946833332,True,2.2221
mp-29754,Sr2 Li2 N2,6,Tetragonal,131,108.55704661742793,3.321404051387783,18.092841102904654,1.74756844,-9.509025566666667,-0.6219861818055551,False,0.2574
mp-13276,Sr2 Li2 P2,6,Hexagonal,194,133.068586195327,3.133051646184146,22.178097699221166,2.7438178,-9.979684561666668,-1.134869963214286,False,1.343099999999999
mp-7756,Sr4 Li4 Sb4,12,Orthorhombic,62,330.98502200206985,4.341096394672895,27.582085166839153,3.687705079999999,-3.595568218333333,-1.018784152777778,True,0.6857999999999991
mp-1208625,Sr2 Li2 V2 F12,18,Trigonal,163,258.3087611354896,3.336302864397696,14.350486729749422,2.24920353,-6.258008921666667,-3.57263433537037,False,2.6226000000000003
mp-1218201,Sr1 Mg2 Ga2 N4,9,Monoclinic,8,115.98387113116961,4.748983220931505,12.887096792352178,5.64113069,-5.721422167777775,-0.7922364849999981,True,2.126499999999999
mp-643004,Sr1 Mg2 Fe1 H8,12,Trigonal,164,112.75037474726082,2.94755411621884,9.395864562271734,1.85641052,-3.867532860833334,-0.48547279083333306,False,1.724299999999999
mp-10550,Sr1 Mg2 N2,5,Trigonal,164,73.57960100624621,3.706633066793308,14.715920201249242,3.51948279,-5.152638686,-0.826653964,True,1.6917
mp-1020587,Sr8 Mg24 Si8 N32,72,Tetragonal,88,899.9435650129525,3.611305552764196,12.499216180735452,4.51576893,-6.174186413749999,-1.133934508749999,False,2.413299999999999
mp-15643,Sr4 Mg4 Ge4,12,Orthorhombic,62,308.96128341891256,3.967842047205432,25.746773618242713,3.22584409,-3.172888291666666,-0.524246304999999,False,0.026900000000000004
mp-643009,Sr2 Mg2 H8,12,Orthorhombic,36,148.70569943912994,2.589688636583528,12.392141619927495,0.90260553,-3.307730559166666,-0.49046991583333305,False,2.7087
mp-643293,Sr4 Mg4 Ni4 H16,28,Cubic,198,331.37589923286896,3.5007182397913432,11.834853544031034,2.98317983,-3.755668218571429,-0.515139569999999,False,1.812399999999999
mp-15642,Sr4 Mg4 Si4,12,Orthorhombic,62,304.14046951960967,3.05770429501108,25.345039126634138,3.96555844,-3.274605439166667,-0.358533394166666,False,0.032999999999999
mp-1208827,Sr8 Mg8 V16 O56,88,Monoclinic,14,1182.6773751301516,3.659560582274237,13.439515626478995,3.51025577,-7.904832159772727,-2.802428770681818,True,2.7983000000000002
mp-1208680,Sr4 Mn4 Ge8 O24,40,Monoclinic,15,544.2785804518817,4.684160750915881,13.606964511297042,3.92809973,-7.4243521810000015,-2.445525668793104,True,1.5991
mp-1194563,Sr4 Mn8 V8 O32,52,Tetragonal,110,705.6193015664298,4.022972177943612,13.569601953200573,2.11093826,-8.512837562307693,-2.5306868812201593,True,2.0316
mp-1200408,Sr2 Mo4 Se4 O22,32,Triclinic,2,504.48102188073597,4.038197159046899,15.765031933772999,0.42843474000000004,-7.23653993,-1.9363447849804691,False,2.7115
mp-1542758,Sr2 Mo2 O6,10,Monoclinic,12,135.04259794686644,5.6946688398702925,13.504259794686643,4.32610285,-8.073330959,-2.596938715999999,False,1.3088
mp-768342,Sr4 Nb8 O16,28,Orthorhombic,57,381.8459466703274,5.8695534146461394,13.637355238225979,4.91445019,-8.943446465000001,-2.988177580714285,False,1.3932
mp-4591,Sr4 Nb8 O24,36,Monoclinic,14,486.41646601857497,5.044661070316612,13.51156850051597,1.08666926,-8.969142043333331,-3.237719354444443,True,2.9977
mp-3790,Sr2 Nb16 O28,46,Orthorhombic,55,578.8999641172496,6.051617661741767,12.584781828635862,4.46147629,-9.453075039130436,-2.8541914530434793,False,0.2536
mp-555718,Sr1 Ni1 F6,8,Trigonal,166,96.31948554640091,4.487613887415892,12.039935693300114,-1.22624429,-8.438344665,-2.702901423750001,True,1.7074
mp-2697,Sr1 O2,3,Tetragonal,139,41.98421694191871,4.7311038520642335,13.99473898063957,2.59636997,-6.067262499999998,-2.204479133333331,False,2.8495
mp-7931,Sr6 P6,12,Hexagonal,189,342.36289376264824,3.451242732968408,28.530241146887352,3.41588326,-13.284295559999999,-1.210426868988094,False,0.45940000000000003
mp-1198273,Sr4 P44 H112 N36,196,Orthorhombic,33,2746.5764800394354,1.408958852010966,14.01314530632365,1.02558428,-5.103078705204082,-0.38120529991982405,False,1.9578000000000002
mp-1105302,Sr6 P12,18,Monoclinic,14,441.13240855365945,3.378070328284513,24.507356030758856,4.34754141,-11.970547448888889,-0.9206095508730161,False,0.796899999999999
mp-560352,Sr2 P4 Xe6 F36,48,Monoclinic,12,853.2656527602588,3.4462205571099123,17.776367765838724,-3.47292587,-4.280948268958333,-2.319229918928571,False,2.6253
mp-1208663,Sr4 P8 Pd4 O28,44,Orthorhombic,62,614.5684803395374,3.977103967464986,13.967465462262213,2.92036393,-7.364111977499999,-2.606022524253245,False,0.5015000000000001
mp-569867,Sr4 P12,16,Monoclinic,12,358.82877940660364,3.341937723423155,22.426798712912728,5.17427575,-11.292647954375,-0.7546754528571421,True,0.378
mp-7198,Sr4 P4 Se12,20,Monoclinic,14,548.3337108817398,4.305976869473027,27.416685544086988,2.25036803,-14.5446220605,-1.1281384455327381,True,2.1432
mp-12622,Sr2 Pd2 F8,12,Tetragonal,140,181.3603153121157,4.944867487441808,15.113359609342973,0.37337128,-5.285625199999999,-2.864338633333332,True,1.3251
mp-1087,Sr1 S1,2,Cubic,225,55.30731406084619,3.5934057106330632,27.653657030423094,1.8660166,-14.01483945,-2.42450937390625,False,2.497
mp-1204655,Sr16 Sb16 Se48,80,Orthorhombic,19,2247.1917757468314,5.276147211705713,28.08989719683539,3.79254971,-4.50531472275,-1.243481970156249,False,0.35809999999999903
mp-2758,Sr1 Se1,2,Cubic,225,61.901185586472266,4.46861550539798,30.950592793236133,1.618258749999999,-17.081164615,-2.35255396453125,False,2.2313
mp-4549,Sr4 Si4 N8,16,Monoclinic,14,221.0092304102121,4.3192919610791325,13.813076900638256,4.63609269,-11.953744073125,-1.40951232125,False,2.9715
mp-2879,Sr4 Sn4 O12,20,Orthorhombic,62,266.2174999396318,6.345516909051056,13.31087499698159,4.02610106,-6.7465352295,-2.6373586375,False,1.7365
mp-1205419,Sr4 Sn4 S12,20,Orthorhombic,62,459.3685815383808,4.374305090181207,22.96842907691904,4.46611209,-14.067571032,-1.2682026126875,False,0.8335999999999991
mp-989627,Sr4 Tc4 N12,20,Monoclinic,15,332.2089200514949,4.551416369146704,16.610446002574744,1.78576149,-14.283768216499999,-0.584453189749999,False,1.581799999999999
mp-1958,Sr1 Te1,2,Cubic,225,75.58435544653058,4.728243242961414,37.79217772326529,2.74147484,-22.29913499,-2.0176923,False,1.7616
mp-4274,Sr4 Te4 O16,24,Orthorhombic,60,369.73531035419313,5.016039527716521,15.405637931424714,2.07390157,-6.378073300416666,-2.273476966527777,False,2.2486
mp-1191111,Sr2 Ti2 P4 O16,24,Monoclinic,15,321.4048055363593,3.3626676442068533,13.391866897348303,1.22315897,-8.180236325416667,-3.180023392301587,False,2.6126
mp-1217828,Sr4 Ti12 Al32 O76,124,Monoclinic,5,1250.5494599772458,3.9891829341008522,10.085076290139078,7.15847293,-8.283616180000001,-3.465720377580646,False,2.6519
mp-17298,Sr1 Ti4 P6 O24,35,Trigonal,148,472.7938511624695,2.981549917386962,13.508395747499128,0.70627477,-8.376186793714286,-3.104235324319727,False,2.7819000000000003
mp-559957,Sr4 Ti4 Ge4 O20,32,Monoclinic,14,424.51979341445315,4.508069262701845,13.26624354420166,2.02912538,-7.9130136965624995,-3.044169573229167,False,2.878599999999999
mp-9517,Sr2 Ti2 N4,8,Tetragonal,129,116.53294840462976,4.659605807998935,14.56661855057872,3.88282441,-13.19376044875,-1.608530592291666,True,0.7925999999999991
mp-4651,Sr2 Ti2 O6,10,Tetragonal,140,119.62507795144641,5.093987781835845,11.962507795144642,3.23055315,-8.438022916,-3.551662291666667,False,1.848799999999999
mp-505345,Sr1 V2 P4 O14,21,Triclinic,2,272.4104350134815,3.275779448192798,12.971925476832453,2.30467674,-8.123316232857142,-2.847431070884353,False,2.121299999999999
mp-21614,Sr4 V8 P8 O36,56,Orthorhombic,62,734.9899964316049,3.5736653847619353,13.124821364850089,2.83934473,-8.27927883482143,-2.906219097270408,True,1.468599999999999