material_id,composition,nsites,crystal_system,space_group,volume,density,density_atomic,efermi,energy_per_atom,formation_energy_per_atom,is_gap_direct,band_gap
mp-1214351,Cs12 Ce4 Cl24,40,Monoclinic,15,1497.4289437504576,3.333657283346723,37.43572359376144,2.27171344,-16.71238604375,-2.4043239292500003,False,0.46039999999999903
mp-29287,Cs6 Co2 Br10,18,Tetragonal,140,712.4684331900082,3.995583409258842,39.581579621667125,0.34240917,-3.648991590555555,-1.644315800996168,False,0.6983
mp-1105622,Cs6 Co2 Cl10,18,Tetragonal,140,624.5557289958278,3.376161218103819,34.697540499768216,0.72556402,-15.094179288333335,-1.8362032197222231,False,0.7602
mp-1206497,Cs3 Co1 F6,10,Cubic,225,197.98249931010238,4.794517219232629,19.79824993101024,-1.35457843,-4.795142318000001,-2.661095949896553,False,2.912
mp-569323,Cs12 Co4 I20,36,Orthorhombic,62,1746.8133901206477,4.152920097389145,48.52259417001799,0.92143701,-3.22724806611111,-1.285313343218389,True,0.9287000000000001
mp-23451,Cs6 Cr4 Br18,28,Hexagonal,194,961.1932516225603,4.221670542583215,34.328330415091436,0.251157199999999,-4.251071339285711,-1.625175163140391,True,1.0085
mp-1193179,Cs6 Cr4 Cl18,28,Hexagonal,194,835.6387934263898,3.266021229129656,29.844242622371066,1.3546973,-13.332135969642858,-1.843279265535713,True,0.26880000000000004
mp-621938,Cs6 Cr4 I18,28,Hexagonal,194,1195.9612970216363,4.567598757763159,42.71290346505844,1.620391479999999,-3.722610926785713,-1.169315127783251,False,0.7209000000000001
mp-582423,Cs12 Cu8 Br20,40,Orthorhombic,62,1453.0631954135974,4.22980607842106,36.32657988533994,1.02669619,-3.383913554499997,-1.473205681896549,False,2.1310000000000002
mp-582024,Cs12 Cu8 Cl20,40,Orthorhombic,62,1283.500955463547,3.638425881510193,32.08752388658867,1.355608189999999,-14.326085039750001,-1.547970491000001,False,2.3072
mp-23481,Cs12 Cu8 I20,40,Orthorhombic,62,1743.9347446679678,4.419372852984223,43.5983686166992,1.38757019,-3.053944214500001,-1.199703301896553,True,2.4429
mp-16543,Cs12 Cu20 O16,48,Monoclinic,14,1104.28667229704,4.6942798830885195,23.005972339521666,1.99371417,-4.666480871874992,-1.082163365122118,False,1.6896
mp-1194135,Cs6 Er4 I18,28,Hexagonal,194,1335.46704675807,4.663735839268205,47.69525166993107,0.73553811,-3.565278450357141,-1.738458174211821,True,2.8905000000000003
mp-1226424,Cs6 Er10 P12 S48,76,Monoclinic,9,2145.3437541067583,3.3908485686808,28.228207290878398,2.03340765,-5.523083703026316,-1.381610083732174,True,2.2701000000000002
mp-1178430,Cs12 Er4 O12,28,Monoclinic,14,741.3021630632205,5.501276677171723,26.475077252257876,3.47820295,-5.380610788214286,-2.2183915687807882,False,2.2999
mp-1229260,Cs12 Eu4 Si24 O60,100,Monoclinic,14,1776.7579063056778,3.585774041716581,17.76757906305678,1.87865401,-7.8826864527,-3.091351737458621,False,0.6834
mp-581532,Cs12 Fe16 P20 O80,128,Orthorhombic,56,1930.575457660518,3.774073846526025,15.082620762972796,0.9948478,-7.515340221953125,-2.432821307021243,True,2.4999000000000002
mp-1193066,Cs12 Fe4 O12,28,Monoclinic,14,664.007833773884,5.027168253663522,23.71456549192443,3.97956805,-5.266945838214285,-1.547254847352217,False,2.1129000000000002
mp-1194302,Cs12 Fe4 Se12,28,Orthorhombic,64,1089.584235371677,4.215058721039797,38.913722691845614,1.49306192,-4.164132777857143,-1.066748727285254,False,0.045000000000000005
mp-541678,Cs24 Ga8 As16,48,Monoclinic,14,1974.399517148527,4.159978075439964,41.133323273927644,1.80870006,-2.967942147499999,-0.45256318107758603,False,0.695199999999999
mp-1178422,Cs6 Ga2 O6,14,Monoclinic,12,327.3673406397602,5.239158769004635,23.383381474268585,4.34431649,-4.7291800417857175,-1.78690693485222,False,2.8770000000000002
mp-1201960,Cs24 Ga8 P16,48,Monoclinic,14,1912.010152329634,3.685035387833381,39.83354484020071,2.06827579,-3.156277602083333,-0.39244830470853803,False,0.9444999999999991
mp-542448,Cs12 Ga4 Se12,28,Monoclinic,14,1083.7901198021286,4.3226463248542,38.70678999293317,0.79799445,-19.813400010000002,-1.284426346741071,False,2.3562
mp-1226537,Cs6 Ge4 Sb6 O26,42,Orthorhombic,63,805.9130095718464,4.604139808114644,19.188404989805868,1.53255103,-6.2901732485714295,-2.067293000665025,False,1.7817
mp-510341,Cs6 Ge8 Au2,16,Orthorhombic,59,589.0861288921735,4.996352576590923,36.817883055760845,2.32693519,-3.330260143749999,-0.26901937737068904,False,0.9316000000000001
mp-1204552,Cs12 Ge36 H24 N8,80,Monoclinic,14,2314.566617076263,3.11805722863275,28.932082713453287,1.24114641,-4.304659886125,-0.235723009698275,True,1.1855
mp-582708,Cs12 Ge4 As4 Se20,40,Monoclinic,14,1542.6839754971684,4.051890691746625,38.56709938742921,1.586727499999999,-3.975451838749999,-1.025787790068427,True,1.842499999999999
mp-1193194,Cs12 Ge4 Se12,28,Monoclinic,15,1086.8934801255953,4.328130248385943,38.81762429019983,1.28646848,-3.733967840714285,-1.18615426942811,False,1.5806
mp-1193606,Cs12 Ge4 Te12,28,Monoclinic,15,1287.8148913604787,4.4054778590924535,45.99338897715995,1.53598082,-3.390603692142857,-0.9939067998522161,False,1.1962
mp-1203208,Cs6 Hf4 Cu2 Te20,32,Triclinic,2,1293.2413441859433,5.38063803987791,40.41379200581073,2.78512056,-4.6234627425,-0.9878017191020111,True,1.189
mp-1197320,Cs6 Hf4 P10 S36,56,Monoclinic,9,1636.2214919597106,3.019691863893821,29.218240927851976,1.10167778,-13.625794130892857,-0.9376314587680681,False,2.1363
mp-1227054,Cs6 Ho14 Se24,44,Orthorhombic,31,1414.1017150806938,5.873114634710666,32.13867534274304,1.934677129999999,-5.5540693859090915,-2.060495445095021,True,1.4958
mp-768211,Cs12 Ho4 O12,28,Monoclinic,14,745.155695635001,5.452069772452231,26.61270341553575,3.4944432500000002,-5.373643266428573,-2.207143953423646,False,2.3008
mp-1206444,Cs6 I2 O2,10,Hexagonal,194,411.08229598899504,4.375676368508151,41.108229598899506,3.1684206,-3.290399018999997,-1.451217752793101,True,1.5285000000000002
mp-1213723,Cs12 I4 O20,36,Orthorhombic,52,842.3028707135329,4.775726613170817,23.397301964264802,1.5463167100000001,-4.708485645,-1.487624494885058,True,1.411099999999999
mp-2212807,Cs12 I4 O20,36,Orthorhombic,63,793.4809885924823,5.069571034275577,22.041138572013395,1.7839978200000002,-15.691553311388889,-1.277203908888888,False,2.0299
mp-28381,Cs12 In4 O12,28,Monoclinic,14,711.018247343396,5.245697979715857,25.393508833692714,1.92430136,-4.520225909285713,-1.616370270804597,False,2.1174
mp-1198384,Cs24 In8 P16,48,Triclinic,2,1877.6197894495656,4.071581046309248,39.11707894686595,2.70712451,-19.809439623124998,-0.49142262245039503,True,0.7103
mp-1213704,Cs6 Li2 Pb8,16,Orthorhombic,63,692.6355796768471,5.919027914066896,43.289723729802944,2.9727606300000002,-2.682639617500001,-0.24720913528735602,False,0.7565000000000001
mp-643895,Cs6 Mg2 H10,18,Tetragonal,140,442.9741445522496,3.20927130678638,24.6096746973472,0.45227105,-2.657539283333333,-0.287513181135058,False,2.5844
mp-648179,Cs3 Mn3 V4 O16,26,Triclinic,2,454.36456096557265,3.7397455794879733,17.47556003713741,0.52615489,-7.918322121153846,-2.313976777029178,False,0.889699999999999
mp-504451,Cs6 Mn2 Cl10,18,Tetragonal,140,634.9115307006463,3.300196207122193,35.27286281670257,0.0687745,-15.450313591666665,-2.031326017998083,False,2.8966000000000003
mp-569118,Cs6 Mn2 I10,18,Tetragonal,140,881.6749040662489,4.09892580035923,48.98193911479161,0.67632979,-3.588776875000001,-1.421442310766285,False,1.9819
mp-541742,Cs6 Mo4 Cl18,28,Hexagonal,194,847.9970402760187,3.5626259839145,30.28560858128638,1.88990304,-14.7170397325,-1.656949164107142,False,0.15050000000000002
mp-17707,Cs12 Na8 Sn4 P12,36,Orthorhombic,64,1182.832880532841,3.685582101174573,32.85646890369003,2.67638948,-3.222453383333333,-0.37096819451696705,False,1.027
mp-630851,Cs6 Na2 Pb8,16,Orthorhombic,63,727.652136001544,5.707436756696241,45.4782585000965,2.9488119999999993,-2.600298854374998,-0.2357686331681,False,0.47540000000000004
mp-683903,Cs6 Nb4 As2 Se22,34,Monoclinic,9,1163.4542997535273,4.361703743998877,34.21924411039786,1.5003969,-4.9422824629411775,-1.056888840720398,False,0.9588000000000001
mp-1192748,Cs6 Nb4 I18,28,Hexagonal,194,1216.0916725470674,4.715437114424511,43.43184544810955,2.2440671500000002,-3.8138686660714303,-1.196536071354682,False,0.43459999999999904
mp-669313,Cs12 Nb8 S44,64,Monoclinic,14,1966.1171535113722,3.166302610770275,30.72058052361519,1.73280765,-5.47795932171875,-1.199928194622844,False,1.5397
mp-1197158,Cs12 Nb8 Se44,64,Monoclinic,14,2287.178643314237,4.219891176274133,35.73716630178495,2.08114005,-4.937553033281249,-1.101204967952922,False,0.8620999999999991
mp-1213734,Cs6 Nb12 S2 Br34,54,Monoclinic,15,1639.029450235944,4.754765622691464,30.352397226591556,2.17685288,-5.049982416296294,-1.52041894912835,False,0.5779999999999991
mp-1201443,Cs6 Nb18 Te8 O64,96,Orthorhombic,63,1550.4118043899539,4.835179138340342,16.150122962395354,2.7190512,-8.130716346979167,-2.619390226054837,True,1.4336
mp-572442,Cs12 Nd4 P8 S32,56,Monoclinic,14,1728.705466117554,3.309832367071027,30.86974046638489,2.6759763100000002,-5.042360844642857,-1.368796292196516,False,2.3644
mp-572404,Cs12 Nd4 Cr12 O48,76,Monoclinic,15,1529.8445364451163,3.868209447223829,20.129533374277845,1.83379927,-7.284743730657895,-2.241230329945554,False,2.6163
mp-17450,Cs6 Ni2 F14,22,Tetragonal,127,421.9599295330494,4.646791485082729,19.17999679695679,-0.8335355600000001,-12.462680807272728,-2.5363833700000002,False,0.873499999999999
mp-23636,Cs6 Np2 Cl8 O4,20,Monoclinic,15,676.7898565046908,3.972433849572962,33.83949282523454,2.08801978,-5.897557982,-2.601377421771553,False,0.22790000000000002
mp-1201856,Cs6 Np2 H16 O18,42,Monoclinic,15,633.060065826536,4.132720931819514,15.072858710155618,1.77134104,-6.025193994761905,-1.864970521081692,False,1.6332
mp-541113,Cs12 P28,40,Tetragonal,76,1414.175426477256,2.891058800427159,35.3543856619314,1.65127529,-14.3665513525,-0.532562034083332,False,2.4278
mp-583193,Cs12 P4 Se16,32,Orthorhombic,62,1225.7369547272226,4.039959408887197,38.30427983522571,0.84309793,-18.776925413125,-1.08021588365327,True,1.9376000000000002
mp-1183951,Cs6 Pb8 Au2,16,Orthorhombic,59,733.7167194848462,6.447746066982817,45.857294967802886,3.36380685,-2.870169841874997,-0.26411946799568503,False,0.7054
mp-1213701,Cs6 Pd2 F10,18,Tetragonal,127,411.51493880740264,4.843258468676371,22.8619410448557,1.53998681,-15.125599002777777,-2.468270962777776,False,2.0825
mp-1226429,Cs6 Pr10 P12 S48,76,Monoclinic,9,2317.5142233597844,2.9501270230406202,30.493608202102426,1.76102384,-5.584394815,-1.412953741977788,True,2.3179
mp-1197940,Cs12 Pu4 H16 O28,60,Monoclinic,14,1053.1648404092932,4.785286653038135,17.552747340154887,2.37346041,-6.387922981666666,-2.009372449514366,True,1.229199999999999
mp-1118943,Cs12 Re8 N20,40,Tetragonal,80,977.3930202409157,5.716371673934991,24.434825506022893,3.71044459,-7.341551047,-0.41039606189655303,True,0.3266
mp-669364,Cs6 Re6 S8 I8,28,Cubic,225,1061.1347142774014,4.986353013969094,37.89766836705005,1.260400269999999,-5.716513581071429,-1.236673290818966,False,2.4339
mp-1227999,Cs6 Re12 S14 Cl14,46,Monoclinic,4,1371.8128320268195,4.814245694131081,29.822018087539554,1.13374897,-6.542678230869564,-1.35481151223763,False,2.372099999999999
mp-1213725,Cs12 Re4 O20,36,Orthorhombic,52,831.2365661028841,5.31317447688295,23.089904613969004,1.26014003,-6.567276486944443,-2.132626270996169,True,2.0941
mp-2751042,Cs12 Re4 O20,36,Orthorhombic,63,782.7130847208693,5.642559187374109,21.74203013113526,1.77412088,-19.441504876666666,-1.932496481388887,True,2.3753
mp-541646,Cs6 Ru4 Cl18,28,Hexagonal,194,823.8382230724488,3.708459338318287,29.422793681158886,1.01563593,-4.314048686785717,-1.606218473140396,False,0.48859999999999904
mp-10378,Cs3 Sb1,4,Cubic,225,197.57853540566006,4.374317888868654,49.394633851415016,2.52653902,-25.758220295,-0.500301612499999,False,0.6126
mp-579560,Cs3 Sb2 Br9,14,Trigonal,164,540.7941077469031,4.180171248994283,38.628150553350224,0.49424839000000004,-3.379595010714287,-1.542848295997538,True,1.9837
mp-27629,Cs3 Sb2 Cl9,14,Trigonal,164,471.37443509365875,3.3864763626118553,33.66960250668991,0.92670003,-3.787036837142856,-1.814263952068964,False,2.395299999999999
mp-23029,Cs6 Sb4 I18,28,Hexagonal,194,1328.918986147041,4.45930423294189,47.46139236239433,1.506494019999999,-2.913528757142858,-1.149382419568967,False,1.8829999999999991
mp-29970,Cs12 Sb20 O56,88,Orthorhombic,55,1444.487970856748,5.662815094418961,16.414636032463047,3.37246353,-6.168564173636364,-1.9576372199529781,False,1.187
mp-1226687,Cs6 Sb10 Se18,34,Monoclinic,12,1183.086425793739,4.823089317845563,34.79665958216879,3.06845744,-20.251901551176474,-0.6836086259742661,True,0.41029999999999905
mp-1201472,Cs12 Sb4 O16,32,Orthorhombic,62,818.6825578562423,4.7419690454453844,25.58382993300757,3.3359497,-5.222023365624999,-1.891426119245689,True,2.7517
mp-1193894,Cs12 Sb4 S12,28,Cubic,198,1118.088725567822,3.663419025616208,39.93174019885078,1.1389393,-19.026391063214284,-1.1497236379910691,False,2.654
mp-1204783,Cs12 Sb4 S16,32,Orthorhombic,62,1193.623436784576,3.610023159282134,37.300732399518,0.80817105,-17.7387581778125,-1.092299295468748,True,2.130499999999999
mp-1192816,Cs12 Sb4 Se12,28,Cubic,198,1238.0707090884969,4.063159904343593,44.21681103887489,0.77575766,-21.7114614825,-1.144839279241068,True,2.2748
mp-17811,Cs12 Sb4 Se16,32,Orthorhombic,62,1324.6951139352914,4.19337541466686,41.396722310477855,0.73094002,-20.85573803875,-1.070998582031251,True,1.3871
mp-572833,Cs12 Sm4 P8 S32,56,Monoclinic,14,1713.8575879946936,3.3622175245427472,30.60459978561953,1.88892334,-5.033636243392857,-1.363611783625087,False,2.373199999999999
mp-1226868,Cs6 Sm14 Se24,44,Orthorhombic,31,1489.2642178457975,5.349257159561097,33.846914041949944,1.40820466,-22.798103149545454,-2.107441694488634,True,1.4741
mp-1226825,Cs6 Sm14 Te24,44,Orthorhombic,31,1802.550116259027,5.494939683082093,40.96704809679607,2.76833837,-28.445692922045453,-1.697396514772725,True,0.864599999999999
mp-1191952,Cs6 Sn2 P2 Se14,24,Triclinic,2,933.661556394845,3.916736123355575,38.90256484978521,2.33074225,-4.03429705,-0.982600513751219,False,1.418899999999999
mp-1193021,Cs12 Sn4 Te12,28,Monoclinic,15,1349.4979385301153,4.430865701213335,48.19635494750412,1.8933442500000002,-3.352292057142859,-1.04323173628079,True,1.0929
mp-556091,Cs12 Ta8 S44,64,Monoclinic,14,1954.2271041292236,3.784049797730573,30.534798502019118,1.7557513500000002,-5.7230789196875005,-1.224344979758261,False,1.7232
mp-17054,Cs12 Ta4 S16,32,Orthorhombic,62,1183.5455216575717,3.972929906156689,36.985797551799116,0.47916987,-5.44183132125,-1.548794005787355,True,2.9443
mp-571397,Cs6 Tb20 C8 Cl42,76,Monoclinic,15,2251.961980667124,4.10057675627866,29.631078692988474,2.15125403,-5.554437878552632,-2.269263412385058,False,0.6759000000000001
mp-1226739,Cs6 Tb14 Te24,44,Orthorhombic,31,1735.7076446465962,5.821272707910817,39.44790101469537,2.99214633,-28.911087525227273,-1.6875834447727232,True,0.8438000000000001
mp-569484,Cs6 Ti4 Cl18,28,Hexagonal,194,845.4797647559095,3.195567799964196,30.195705884139624,2.24518304,-13.258855758214285,-2.075082679345237,False,0.21810000000000002
mp-1203892,Cs12 Ti12 Te44,68,Monoclinic,14,2717.090392979526,4.756958837827176,39.95721166146362,3.56302492,-4.601927164117647,-1.014469894252873,False,0.079
mp-12244,Cs6 Ti2 F14,22,Tetragonal,127,443.9768476772147,4.335371309042672,20.18076580350976,-0.85356416,-5.606691225909091,-3.423382921118078,False,2.9901
mp-1192769,Cs6 Tl4 Cl18,28,Trigonal,167,895.1707236747184,4.179530826539358,31.9703829883828,-0.62993992,-3.409070661785713,-1.687373365759442,True,2.189
mp-756122,Cs12 Tl4 O12,28,Monoclinic,14,728.6619659659376,5.935116561963551,26.02364164164063,1.64028993,-4.20063562642857,-1.352165934614122,False,1.5853000000000002
mp-1201357,Cs3 Tm11 Te18,32,Monoclinic,12,1169.1307492091253,6.467839997969992,36.535335912785165,3.115781,-30.3716006371875,-1.647634144375,False,0.9707000000000001
mp-669308,Cs6 Tm4 I18,28,Hexagonal,194,1328.0818700419507,4.698048121483075,47.431495358641094,0.96506311,-3.548434023928568,-1.7337876520689641,True,2.8922
mp-756459,Cs12 Tm4 O12,28,Monoclinic,14,737.0501154078323,5.548110259412932,26.323218407422583,1.25032042,-5.381107240714286,-2.231061925566504,True,2.6196
mp-557858,Cs12 U8 Ge8 O44,72,Monoclinic,14,1425.3989724292978,5.573411412180834,19.797207950406914,3.32587111,-7.788626651388887,-2.8452722349425272,False,0.194299999999999
mp-1201643,Cs6 U4 P2 O20,32,Monoclinic,15,654.4492055028687,5.408230639091441,20.451537671964648,1.32787416,-8.148143980625001,-3.135529211475521,False,2.150299999999999
mp-1226167,Cs6 V4 O4 F14,28,Monoclinic,15,511.0339840996517,4.325478202012364,18.251213717844703,-0.21981422,-6.151579609642857,-2.995534360640394,True,2.8433
mp-1200171,Cs12 V4 S16,32,Orthorhombic,62,1117.3846746898519,3.435361871029488,34.91827108405787,0.8785444800000001,-4.989308214374997,-1.4441485829956862,False,1.6048
mp-1120763,Cs3 V1 Se4,8,Cubic,217,318.888577821399,3.9861543598476272,39.861072227674875,0.33488618000000003,-19.573952955,-1.241305998281248,True,1.4894
mp-1196700,Cs6 Y4 H36 N18,64,Trigonal,167,895.8687565938658,2.6718253784641472,13.997949321779153,0.12761063,-5.35703325671875,-0.6101704031707971,True,2.2297000000000002
mp-1226222,Cs6 Y14 Se24,44,Orthorhombic,31,1415.1487002829508,4.619867185806584,32.16247046097615,1.75335207,-19.818552914772727,-2.124948892443182,True,1.5161
mp-770815,Cs12 Y4 O12,28,Monoclinic,14,752.0105858838373,4.730883448868786,26.85752092442276,3.55708848,-5.622513903571426,-2.182955728423644,False,2.341599999999999
mp-540822,Cs6 Zr4 I18,28,Hexagonal,194,1253.2861063581931,4.566578331457093,44.76021808422119,2.72543048,-3.858123160000003,-1.462734052426111,False,0.395599999999999
mp-1204981,Cs6 Zr4 P10 S36,56,Monoclinic,9,1652.099409975344,2.639823179962501,29.501775178131144,1.03322105,-5.456689242500009,-1.121433034899286,False,1.9114
mp-567781,Cs6 Zr14 B2 Cl40,62,Trigonal,167,1765.3037636213255,3.305748477236205,28.472641348731056,2.19690654,-5.667946444516129,-2.241879189939748,False,1.1888
mp-1201250,Cs6 Zr14 Mn2 Cl40,62,Trigonal,167,1799.7196813355501,3.323961867352283,29.02773679573468,2.30478402,-5.66443621483871,-2.15828433054505,True,1.1378
mp-1104686,Cs4 Au6 S5,15,Trigonal,157,502.6188538168242,6.190433920719732,33.50792358778828,0.8493585,-30.388516880666668,-0.78061232660417,False,2.409
mp-1204289,Cs32 Bi8 As24 Se56,120,Monoclinic,14,4719.161699070379,4.273373863182977,39.326347492253156,1.44419152,-3.984356640583333,-0.917443805085129,True,1.4702
mp-23583,Cs8 Bi2 Sb2 Cl24,36,Tetragonal,141,1280.6514323336114,3.339611668915372,35.573650898155876,0.41851704,-3.686974806388889,-1.807338171312261,False,0.315399999999999
mp-1196471,Cs8 Co6 F20,34,Orthorhombic,64,616.590110730016,4.838991995597819,18.135003256765177,-0.12444019,-5.240691560294112,-2.642416019624742,True,2.399
mp-505031,Cs4 Cu3 F10,17,Monoclinic,12,308.40222378759233,4.91182104758198,18.141307281623078,0.66350379,-12.06933676,-2.408485024705883,True,0.123
mp-561495,Cs4 Cu1 Si2 O7,14,Triclinic,2,290.7780836904162,4.359155685739731,20.769863120744017,2.27147805,-6.178913713571406,-2.377665138830027,False,0.5831000000000001
mp-1191216,Cs8 Fe4 O10,22,Monoclinic,15,499.69147498945404,4.807296471331682,22.713248863157002,2.16893738,-5.737119652727272,-1.617868950329153,False,0.523299999999999
mp-1205381,Cs16 Fe4 O12,32,Triclinic,2,857.9370206286146,4.919775905247241,26.810531894644207,3.2408312,-4.739203354375,-1.370976541077587,False,0.39029999999999904
mp-1201003,Cs16 Fe4 O16,36,Monoclinic,14,860.1687737708805,5.030557408294739,23.893577049191126,1.70938647,-5.041896013333333,-1.498143178735633,True,2.000199999999999
mp-574485,Cs8 Ga4 Se10,22,Triclinic,2,824.9797286243862,4.290808787028841,37.49907857383574,0.78892467,-18.95823363409091,-1.242127720028409,True,2.1204
mp-1195705,Cs8 Ge2 P8 S24,42,Monoclinic,15,1306.5267454073041,2.828989354988876,31.10777965255486,1.05743298,-4.762442438333334,-0.973054483675815,False,2.0929
mp-1195417,Cs16 Ge4 P16 Se48,84,Orthorhombic,29,3052.5116833296343,3.646212916290767,36.33942480154327,1.11492404,-4.249134093333334,-0.8268593328722441,True,1.3838