material_id,composition,nsites,crystal_system,space_group,volume,density,density_atomic,efermi,energy_per_atom,formation_energy_per_atom,is_gap_direct,band_gap
mp-1204612,Ce16 C4 I24 N4,48,Tetragonal,136,1908.7565751907596,4.690497021135507,39.76576198314083,4.05812347,-5.729876163541667,-1.524974629583332,True,0.008099999999999
mp-1105809,Ce8 Se6 N4,18,Monoclinic,15,437.5592837926943,6.264468644009998,24.308849099594127,6.27661859,-7.63226705333336,-1.975368230781275,False,0.014300000000000002
mp-676287,Ce6 Th4 O19,29,Monoclinic,8,428.8859740886821,8.025505051363549,14.789171520299382,7.97170812,-9.72439899862069,-4.231695849827586,False,0.102799999999999
mp-560230,Ce2 Ag12 N18 O54,86,Trigonal,167,1196.0469034666874,3.735703466442723,13.907522133333574,2.32633662,-6.306249043023255,-0.919411303953487,False,2.2186
mp-1193745,Ce4 As4 O16 F4,28,Orthorhombic,62,426.283974990484,4.643819334603983,15.224427678231573,1.08075612,-7.4595801264285715,-2.843470298214286,True,1.495499999999999
mp-10478,Ce4 As4 Rh4,12,Orthorhombic,62,241.8795648354988,8.730906041855526,20.156630402958232,7.61417223,-24.486315644166666,-1.2581861849999991,False,0.025599999999999002
mp-20882,Ce4 B4 O12,20,Orthorhombic,62,240.9429887520787,5.483837776597158,12.047149437603935,7.33696603,-8.904444915000001,-3.412399983833333,False,0.058699999999999
mp-1213954,Ce4 Bi4 Rh4,12,Orthorhombic,62,301.57189098795646,9.955394856842291,25.130990915663038,7.85292499,-38.6639563775,-0.837579332499998,False,0.014400000000000001
mp-20288,Ce6 C6 O18 F6,36,Hexagonal,190,437.9495521681103,4.98499615169875,12.165265338003064,6.26977621,-8.359847035277777,-3.039288576527778,True,0.079899999999999
mp-582011,Ce2 Cl6,8,Hexagonal,176,209.62628175437192,3.9048669185460962,26.20328521929649,4.26701309,-14.89158872125,-2.567102358125,False,0.011099999999999001
mp-1226908,Ce2 Cu2 Ge2 H2,8,Trigonal,164,123.66738021524988,7.44713744440942,15.458422526906235,6.45619208,-5.120990853749999,-0.6074031453124981,True,0.2008
mp-2038579,Ce6 F18,24,Orthorhombic,63,319.6498739297401,6.143800902812646,13.318744747072506,5.90035713,-14.444144496249999,-4.389466343749999,False,0.9484
mp-542001,Ce6 F24,30,Monoclinic,15,454.4772832450901,4.737642139028645,15.149242774836337,-1.09848172,-6.776128403333333,-4.057656529333332,False,2.1473
mp-1213799,Ce2 Hf4 F22,28,Orthorhombic,72,424.0765615640454,5.5295242982030555,15.145591484430193,2.7843624,-7.5759500978571435,-4.2256855225,True,0.1023
mp-1213837,Ce2 Hf2 F14,18,Monoclinic,4,299.71607118276165,5.00400823959966,16.65089284348676,2.49288224,-7.5187745433333255,-4.264207262777769,True,0.35650000000000004
mp-1545417,Ce2 I6,8,Monoclinic,11,324.406392393713,5.331939213390109,40.55079904921413,3.85200549,-4.345401381249999,-1.718154452499998,False,0.7358999999999991
mp-1213931,Ce4 Mg4 B20 O40,68,Monoclinic,14,647.322370768195,3.883469806799888,9.519446628944044,6.23193339,-8.398317617205882,-3.078082982549019,False,0.28999999999999904
mp-1076951,Ce2 Ni2 Ge2,6,Hexagonal,194,114.76753101443228,7.855049757033581,19.127921835738714,7.504866,-6.191436849166664,-0.7447320474999951,False,0.056799999999999004
mp-20194,Ce1 O2,3,Cubic,225,40.85964149792201,6.994759103664203,13.619880499307337,5.05743538,-9.204800156666666,-3.9271761966666663,False,1.8647
mp-22524,Ce4 P8 O28,40,Cubic,205,688.3913277772904,3.030298353210552,17.20978319443226,-0.31677658000000003,-8.2495002705,-3.109137874928571,False,1.3714
mp-504897,Ce2 P10 O28,40,Triclinic,1,564.6583157524486,3.052396748289921,14.116457893811216,3.46756052,-7.92574784425,-2.811459265910714,False,0.677099999999999
mp-561261,Ce8 P8 S32,48,Tetragonal,142,1196.0681591028383,3.324773563080348,24.918086647975798,4.89771628,-6.009529874791667,-1.358552930565475,False,0.22389999999999902
mp-2109,Ce2 Pt4,6,Cubic,227,116.8998232478053,15.065160475500479,19.483303874634217,8.61170492,-45.759315109999996,-1.153960923333329,False,0.0089
mp-16097,Ce1 Sc3 B4 O12,20,Trigonal,155,222.04377559179827,3.815649100505056,11.102188779589913,5.51685817,-8.9940093165,-3.442636500083332,False,0.2621
mp-29466,Ce4 Si12 N20,36,Orthorhombic,19,422.52563860748774,4.628099407672499,11.736823294652437,9.1025792,-12.9125643625,-1.4897114845833341,False,0.11899999999999901
mp-22225,Ce3 Si3 B3 O15,24,Trigonal,144,272.0996165515161,4.741962507938011,11.337484022979837,7.34877735,-8.71473921,-3.367056123020832,False,0.157499999999999
mp-1198476,Ce8 Sn24 Ru8,40,Cubic,223,950.1751990343957,8.351020351726445,23.754379975859894,8.80269001,-5.9675536195,-0.519540024499998,False,0.0053
mp-1214015,Ce4 Tl4 P16 O48,72,Monoclinic,14,1054.096346585079,4.161284352752651,14.640227035903873,5.4021189,-7.743493314027778,-2.779835083578043,False,0.34689999999999904
mp-1194799,Ce4 Tl4 P8 S24,40,Monoclinic,14,994.8805459207922,3.998035522346367,24.872013648019806,4.97407927,-5.478539975749999,-1.081587331511904,False,0.2887
mp-638100,Ce4 Tl8 P8 S28,48,Monoclinic,14,1261.4639118551263,4.398139549191063,26.280498163648463,4.64131721,-5.224757877291666,-1.018144700079364,False,0.23289999999999902
mp-1213886,Ce8 Tl8 F40,56,Monoclinic,14,890.6016523350283,6.5555009716053,15.903600934554078,0.38938229,-6.073828768392859,-3.519873931011908,False,1.5110000000000001
mp-1195336,Ce4 Tl4 P8 S28,44,Monoclinic,14,1123.2183505911603,3.730840492019441,25.527689786162735,4.83419522,-5.422547159318181,-1.049102976601731,False,0.27829999999999905
mp-1213767,Ce2 Zr4 F22,28,Orthorhombic,72,451.7154968459966,3.908006820773246,16.13269631592845,2.25684616,-7.27196011,-4.123051020357143,False,0.3153
mp-22724,Ce2 Zr2 F14,18,Monoclinic,4,305.28717344653137,3.96336495800752,16.9603985248073,2.73952557,-7.274741918333329,-4.176784459999995,False,0.029399999999999003
mp-619575,Cl8 F24,32,Monoclinic,14,491.74309619014207,2.497464466586691,15.36697175594194,-2.01036124,-4.5009239428125,-0.6182932559375001,False,2.5175
mp-23207,Cl8 O16,24,Orthorhombic,61,377.6857587257459,2.372477043145755,15.736906613572748,0.017719060000000002,-4.267691487916667,-0.352869884583334,False,0.9646
mp-22869,Cl4 O12,16,Monoclinic,9,227.7169375298868,2.434144412054772,14.232308595617924,-1.20368262,-4.51232245,-0.33921599625000004,False,1.2103
mp-19292,Co1 As2 O6,9,Trigonal,162,88.7446207531823,5.702735875585171,9.860513417020256,3.57067867,-6.749632407222222,-1.620584872222222,False,2.065699999999999
mp-572672,Co4 I8 O24,36,Monoclinic,4,520.5734612969454,5.215220181999961,14.460373924915151,2.87426105,-5.399268551111111,-0.969356553333333,False,2.0717
mp-30006,Co4 N8 O24,36,Trigonal,148,399.0469430279408,3.045095274788639,11.08463730633169,0.09311048,-6.86529878,-0.921105642222222,False,1.8283
mp-773130,Co4 N16 O48,68,Triclinic,2,1063.5942125904805,1.9169232087418862,15.641091361624714,-2.34424922,-6.634130915735295,-0.7598921063235301,False,0.043099999999999
mp-19238,Co4 Pt12 O24,40,Orthorhombic,65,447.80315948693703,10.978935086425206,11.195078987173426,5.08872813,-6.524561416,-1.021103145,False,0.1366
mp-2956,Co8 Ge12 S12,32,Trigonal,148,511.41964622012506,5.610437373228489,15.981863944378908,6.49819001,-5.6713202821875,-0.602445818749998,False,0.5427999999999991
mp-5094,Co8 Ge12 Se12,32,Trigonal,148,569.419771832191,6.680027352503196,17.79436786975597,5.43052908,-5.351588404999999,-0.523631975253906,True,0.37370000000000003
mp-2994,Co8 Ge12 Te12,32,Trigonal,148,660.8919404501713,7.222002268687246,20.652873139067854,6.54426693,-18.2008918421875,-0.158883350937497,True,0.4535
mp-570152,Co8 Sn12 Se12,32,Trigonal,148,664.379653810537,7.10700883356796,20.76186418157928,6.35987646,-5.139998559999999,-0.542088130253905,True,0.33840000000000003
mp-866481,Co8 Sn12 Te12,32,Trigonal,148,761.5971113744109,7.472422657430012,23.79990973045034,7.13259547,-4.887602568750001,-0.421919233125001,True,0.4171
mp-757299,Co21 Cu3 O32,56,Trigonal,160,540.2485316694,5.963559551620097,9.647295208382143,3.54223865,-7.012630321428571,-1.290592405535713,False,0.017
mp-1202958,Co8 As4 H4 O20,36,Orthorhombic,58,448.9409773468795,4.050811838212693,12.470582704079986,1.2144719,-6.737043048888889,-1.506828889305556,False,1.9439000000000002
mp-550468,Co4 P4 O14,22,Monoclinic,14,234.02360752382376,4.141132898834099,10.637436705628353,2.65144599,-7.680990056590908,-2.250671190616882,False,2.0784
mp-622183,Co8 P4 Cl4 O16,32,Monoclinic,15,427.88201267411955,3.854300777868896,13.371312896066236,1.9364329,-7.1243641590625,-1.959027435892856,False,2.6302000000000003
mp-505217,Co8 P4 H4 O20,36,Orthorhombic,58,414.337756567037,3.684595463319983,11.509382126862139,2.0064205,-7.233208552222223,-1.920177615654762,False,2.4941
mp-18855,Co4 Te6 O16,26,Monoclinic,15,374.2818961219498,5.578240041435182,14.395457543151915,3.92919049,-6.342220546923078,-1.474494457692308,False,2.4813
mp-562111,Co12 As8 O32,52,Monoclinic,14,577.3842654927694,5.2300984309539285,11.103543567168641,2.69620229,-6.961698386153846,-1.552145827307693,False,1.958699999999999
mp-19264,Co6 P4 O16,26,Monoclinic,14,314.34525650770917,3.874656409549819,12.090202173373429,1.7121188200000002,-7.680226294230769,-2.156004351868131,True,2.9001
mp-645717,Co18 Te6 O36,60,Monoclinic,15,650.2282886795527,6.13513610629714,10.837138144659212,3.95306859,-6.840789082000001,-1.417656873666668,False,1.0654
mp-1195181,Co16 Se12 Cl8 O36,72,Orthorhombic,62,1162.0046666373848,3.9299078879051423,16.138953703297013,3.64068711,-6.143612037916666,-1.296382262473958,True,2.4618
mp-562833,Co10 Se8 Br4 O24,46,Triclinic,2,724.2707740347321,4.412570688278876,15.745016826842003,1.50177443,-6.142836128913044,-1.260220709755435,True,2.528
mp-562327,Co10 Te8 Cl8 O22,48,Triclinic,2,837.1620164247685,4.454506411834842,17.440875342182675,2.18627786,-5.984770301458333,-1.398851575277777,False,1.8011
mp-562912,Co24 Te12 Cl8 O48,92,Tetragonal,135,1295.5413182380141,5.123335844250451,14.081970850413198,3.80870817,-6.433659105217389,-1.420483641739128,False,2.2763
mp-685142,Co14 Sb4 O24,42,Monoclinic,15,470.5462272839195,5.985435840606801,11.203481601998083,4.2958851,-7.127300873809523,-1.528850798571428,False,0.8058999999999991
mp-639164,Co14 Te8 Br12 O24,58,Monoclinic,15,1101.910065364146,4.805254362403309,18.998449402830104,1.77705235,-5.808060095862069,-1.266530720574711,False,2.2401
mp-1203045,Co18 Te10 Pb12 O60,100,Hexagonal,182,1331.8027635441722,7.210651515887124,13.318027635441721,4.85919092,-6.497971774600001,-1.4853319242666672,False,1.3596
mp-562172,Co4 Ag4 N12 O36,56,Monoclinic,14,687.9943961937893,3.40621907570151,12.285614217746238,-0.23220107,-6.528953015892869,-0.848750396011916,False,2.480299999999999
mp-19178,Co2 Ag2 O4,8,Hexagonal,194,87.12125219781167,7.578299942146375,10.890156524726459,2.79283801,-5.97368530125,-1.005616199166666,False,1.331999999999999
mp-2715,Co4 As8,12,Monoclinic,14,183.76838977981774,7.546049905466102,15.314032481651479,6.28072553,-14.506548740833333,-0.290117705833334,False,0.172299999999999
mp-505511,Co8 As8 Se8,24,Orthorhombic,61,382.505170858071,7.391006615784446,15.937715452419624,5.90182087,-14.465206302916668,-0.38076552010416703,False,0.39470000000000005
mp-997158,Co2 Au2 O4,8,Hexagonal,194,87.71762486577444,10.900131267155912,10.964703108221805,4.20024895,-6.0296507275,-0.9538455450000001,False,0.5255000000000001
mp-1195268,Co8 Bi16 S8 O56,88,Orthorhombic,61,1216.432621357821,6.7812696081045605,13.823097969975239,3.6223290500000003,-6.628550653409092,-1.747862295,False,2.244799999999999
mp-1190466,Co2 Bi12 S4 O32,50,Monoclinic,5,755.9878826019867,7.173538294349684,15.119757652039734,3.83037522,-6.492191243799999,-1.775482531999999,False,2.350099999999999
mp-1105091,Co4 Bi4 As4 O20,32,Triclinic,2,445.7162305849643,6.3011335933828985,13.928632205780135,3.14120881,-6.707611891875,-1.6534395684375,False,2.0761
mp-30033,Co1 Br2,3,Trigonal,164,77.81513086815478,4.667836392740899,25.938376956051595,0.88435531,-4.136869076666667,-0.6677658133333331,False,0.1072
mp-23240,Co1 Cl2,3,Trigonal,166,64.59071594564031,3.337988324124591,21.53023864854677,1.92073856,-9.455805333333332,-0.942769024999999,False,0.0843
mp-555908,Co2 F4,6,Tetragonal,136,68.98126085349506,4.666660251169866,11.496876808915843,0.52860275,-5.99539223,-2.341685073333334,True,2.2721
mp-1271079,Co4 F12,16,Tetragonal,140,226.68760093708212,3.396809423561567,14.167975058567633,-3.01188664,-5.369672344375,-2.150928883125,True,1.6435
mp-510271,Co4 H48 Br8 O24,84,Monoclinic,12,926.2951355221888,2.34361052487118,11.027323041930819,-1.08282205,-5.055130411071429,-1.205745978452381,True,2.852999999999999
mp-1192030,Co4 H8 Cl8 O4,24,Orthorhombic,62,364.29883065788516,2.6957883061634123,15.179117944078548,0.72789907,-4.943372117916667,-1.181906084166666,False,0.8128000000000001
mp-643547,Co4 H8 S4 O20,36,Monoclinic,15,367.9105160556862,3.123494833167299,10.219736557102394,1.62207587,-6.3632681825,-1.607499939166666,True,1.172
mp-23853,Co1 H4 Cl2 O2,9,Monoclinic,12,113.58113980145261,2.424990703794188,12.620126644605845,-0.27965428000000003,-5.045305585555556,-1.233406687222222,False,2.573
mp-22408,Co2 O2,4,Cubic,216,45.6458388279094,5.451909946417111,11.41145970697735,2.80576017,-7.312520008750001,-1.2718311462500012,True,0.5880000000000001
mp-1400906,Co4 O8,12,Tetragonal,87,124.58651702114541,4.847912397318181,10.382209751762117,0.85252144,-6.748878903333335,-1.072432660000001,True,0.5904
mp-14285,Co4 P8,12,Monoclinic,14,154.83268856077132,5.185653188975327,12.902724046730944,8.23318112,-10.919083457500001,-0.506288872817461,False,0.437799999999999
mp-24536,Co2 P4 H16 O20,42,Monoclinic,14,388.14344602880624,2.472246993234041,9.241510619733482,0.32989704000000003,-6.274830032380953,-1.769815492823129,True,2.448
mp-2761326,Co4 P4 O16,24,Monoclinic,10,247.48119681791871,4.130649644696764,10.311716534079947,4.06159546,-7.510814523333335,-2.120692145773811,False,0.48349999999999904
mp-1226003,Co4 P4 S4,12,Cubic,198,157.60762281838188,5.140340194371183,13.13396856819849,7.60642037,-10.672168665000001,-0.5817331569295641,False,1.1231
mp-10368,Co8 P8 Se8,24,Orthorhombic,61,357.49698733383923,6.2749659793806,14.895707805576635,6.7950874,-5.960383141250001,-0.6121159002455361,False,0.6371
mp-556492,Co1 Pt1 F6,8,Trigonal,148,97.89790942284334,6.242125330234783,12.237238677855418,-0.66257842,-5.027116051249999,-1.9411580149999992,True,1.9373
mp-19379,Co4 S4 O16,24,Orthorhombic,62,270.06281397140555,3.812099399711893,11.252617248808564,1.51455921,-6.91416527125,-1.73689522,False,2.1606
mp-550763,Co4 Sb8 Br8 O12,32,Triclinic,2,728.4226282798674,4.652824481842632,22.763207133745855,2.04615813,-5.6497340059375,-1.461084595312499,False,1.595799999999999
mp-1317,Co4 Sb12,16,Cubic,204,371.0008899393585,7.594834427268833,23.187555621209906,7.52693137,-22.736178655,-0.147884075,True,0.1633
mp-5881,Co8 Sb8 S8,24,Orthorhombic,61,402.4393002273977,7.023037647410139,16.768304176141573,8.01181375,-16.028720975833334,-0.370205661770834,False,0.367399999999999
mp-18973,Co4 Se8 O20,32,Orthorhombic,60,427.0174871570919,4.617434747293967,13.344296473659123,2.03187838,-6.1309011834375,-1.272770595898438,False,2.3763
mp-551407,Co2 Se2 O8,12,Orthorhombic,63,144.58519292438015,4.637370473472626,12.04876607703168,1.56744891,-6.403964646249999,-1.333769276640624,True,1.3657
mp-561319,Co1 Sn1 F6,8,Trigonal,148,107.11084981377775,4.5211947282166065,13.388856226722218,-0.07458368,-5.47665731875,-2.648394465625,False,2.6481
mp-551806,Co2 Te2 Mo2 O12,18,Orthorhombic,18,250.58419425687535,5.015987140621791,13.921344125381964,2.75608643,-7.315867137777778,-1.670296165185186,False,1.847299999999999
mp-698567,Cr1 Bi14 O24,39,Triclinic,1,645.2617048423795,8.651135283920192,16.545171919035372,3.75035126,-6.3612389256410244,-1.672403235128204,False,2.019199999999999
mp-30205,Cr4 Bi12 O30,46,Orthorhombic,37,727.1675839141416,7.297680234023007,15.807990954655251,2.15045988,-6.801946998043475,-1.7208289165217372,False,2.408
mp-647862,Cr8 Mo12 O48,68,Orthorhombic,60,1083.3716383259307,3.579311015652639,15.931935857734274,-0.41418079,-8.635916218529411,-2.09364696382353,False,2.3556
mp-19262,Cr4 Cd2 O8,14,Cubic,227,160.82633768443435,5.790301382345762,11.487595548888168,2.73344769,-7.864115909285714,-2.141551745,False,1.8327
mp-20758,Cr4 Co2 O8,14,Cubic,227,145.38620266155158,5.183634917332189,10.384728761539398,3.0978209,-8.736890134285728,-2.132410751428586,True,2.606
mp-720712,Cr4 H48 I6 N18,76,Hexagonal,194,955.063082035723,2.207958916761884,12.56661950047004,0.62861129,-5.307710534342105,-0.560167718026316,True,1.9093
mp-21074,Cr4 Hg2 O8,14,Cubic,227,164.94006408470707,7.421376491587794,11.781433148907649,2.31509323,-7.515733541428573,-1.886074827500002,False,1.2575
mp-1974686,Cr4 Ni2 O8,14,Trigonal,166,145.0305800941281,5.1908543577168125,10.35932714958058,5.76102652,-8.453904055714284,-2.042750392857141,False,0.7009999999999991
mp-554453,Cr12 P12 O42,66,Monoclinic,15,779.7109712947744,3.551491354532655,11.81380259537537,4.39253682,-8.411884417272727,-2.52345086948052,True,0.657
mp-704115,Cr8 P16 Pb12 O64,100,Tetragonal,92,1333.8612541739517,5.504886856898496,13.338612541739517,2.74412752,-7.7357886512,-2.484856397942857,True,2.4535
mp-556473,Cr8 P4 Br4 O16,32,Monoclinic,14,489.2929040074698,3.785630057708158,15.290403250233432,2.63909912,-8.0188655053125,-2.250070627767856,False,2.2655
mp-540537,Cr4 Te8 O22,34,Monoclinic,14,509.7544218908825,5.149405714263823,14.99277711443772,3.20019315,-6.8289047326470715,-1.752028875686286,True,2.3209
mp-21355,Cr4 Te2 O12,18,Tetragonal,136,187.13989992944465,5.8135509132781324,10.39666110719137,4.67433107,-7.815362011666666,-2.022343471296295,False,1.4893
mp-19894,Cr4 W2 O12,18,Tetragonal,136,186.8221519491064,6.823199267633029,10.379008441617023,3.33399085,-9.188791489444444,-2.305236911666666,False,1.609599999999999
mp-776667,Cr12 Fe8 O48,68,Monoclinic,14,995.3610242774901,3.06743704332228,14.637662121727795,-1.08175076,-7.830827970294117,-1.6381975649999991,False,1.823599999999999
mp-546111,Cr6 Ag2 O16,24,Monoclinic,12,316.4177298657328,4.112822985233676,13.184072077738866,0.17992534000000002,-7.59053008,-1.641716069305554,False,1.2442
mp-23581,Cr6 B14 Br2 O26,48,Cubic,219,464.59703895432335,3.713980485941569,9.67910497821507,4.73142823,-8.520736729791667,-2.6175982128819433,False,0.466099999999999
mp-559511,Cr12 B28 Cl4 O52,96,Orthorhombic,29,923.9010567136193,3.415688467802699,9.623969340766868,3.84983466,-8.549215066666667,-2.637260038715278,False,2.7626
mp-558442,Cr6 B14 I2 O26,48,Cubic,219,469.88832562311524,4.004348410177127,9.789340117148233,4.90811045,-8.475353925833334,-2.576920988923611,False,2.026499999999999
mp-23565,Cr4 Ag1 Bi1 O14,20,Tetragonal,79,309.2644186250251,4.020677541436706,15.463220931251254,-0.254046999999999,-7.26608066,-1.535249863083333,False,1.698599999999999
mp-1226322,Cr4 In1 Ag1 Se8,14,Cubic,216,319.57433254957067,5.520076220302568,22.826738039255048,3.49843684,-5.93840305,-0.7825749697916661,False,9.999999999976698e-05
mp-557963,Cr16 Si8 Br8 O28,60,Monoclinic,7,916.5980798802259,3.883844879186213,15.276634664670432,2.89731302,-8.164513232500001,-2.339683496166666,False,2.2567
mp-556318,Cr16 Si8 Cl8 O28,60,Monoclinic,7,897.4650306055162,3.308679091836903,14.957750510091936,2.80893005,-8.2671898615,-2.4141481085,False,2.320299999999999
mp-1226160,Cr5 In1 S8,14,Monoclinic,8,262.49846045539994,3.9936578328825263,18.749890032528565,5.20180509,-6.956375245714286,-0.946997557619046,False,0.134599999999999
mp-773920,Cr20 O48,68,Orthorhombic,60,1020.3745477293073,2.942132664442842,15.005508054842755,-0.8568749,-8.164017685294118,-1.832207719999999,False,1.794699999999999
mp-1226281,Cr1 Ag1 P2 Se6,10,Monoclinic,5,248.87336879121943,4.641011583473892,24.887336879121943,2.75944338,-4.9506364099999995,-0.520396303501487,False,0.6964
mp-19378,Cr1 Ag1 O2,4,Trigonal,166,47.9865802322794,6.6392764695215885,11.99664505806985,2.5670638,-7.2827118925,-1.6847351029166662,False,1.6634
mp-3532,Cr1 Ag1 Se2,4,Trigonal,160,84.78312531820237,6.224036244495957,21.19578132955059,3.39825107,-5.468025192500001,-0.596073166588541,False,0.42390000000000005