material_id,composition,nsites,crystal_system,space_group,volume,density,density_atomic,efermi,energy_per_atom,formation_energy_per_atom,is_gap_direct,band_gap
mp-1101818,Ba2 La2 Ag2 Se6,12,Orthorhombic,63,357.50665121503613,5.768634841527522,29.792220934586343,3.10858048,-5.207024936666666,-1.842749243949652,False,1.6435
mp-1214348,Ba2 La2 Ag2 Te6,12,Orthorhombic,63,419.6093042355706,6.06978210388673,34.96744201963089,4.21552389,-4.733326027499999,-1.545353126944443,False,1.2931
mp-18079,Ba4 La4 Cu4 S12,24,Orthorhombic,62,574.9227920374053,5.036857045591344,23.955116334891887,5.19874489,-5.860776805,-1.965898902083333,True,1.0948
mp-541430,Ba4 La4 Cu4 Se12,24,Orthorhombic,62,680.231574771893,5.630811347396751,28.342982282162207,3.78397073,-5.4305919779166665,-1.856938119921875,True,1.205299999999999
mp-17063,Ba4 La4 Cu4 Te12,24,Orthorhombic,62,818.4856373495735,5.863852575370698,34.10356822289889,4.73211515,-4.915145200833333,-1.517794134999999,True,0.8131
mp-557892,Ba2 Li2 B6 S12,22,Monoclinic,9,509.48999298780427,2.40589622197008,23.158636044900195,1.1413149,-5.624756384545455,-1.1978263368939381,False,2.8597
mp-558083,Ba4 Li8 Ti24 O56,92,Orthorhombic,64,1115.9882328136423,3.942498183315851,12.130306878409156,1.50906804,-8.71353206673913,-3.392609160507246,False,2.9428
mp-10616,Ba1 Li1 As1,3,Hexagonal,187,81.92486176553213,4.442764820697689,27.308287255177376,2.47973006,-3.772368136666666,-0.9396946902777781,True,0.5928
mp-554076,Ba4 Li4 B4 S12,24,Monoclinic,14,529.8155505331754,3.15015512852314,22.07564793888231,2.24401521,-5.35333528375,-1.532940570416666,True,2.1532
mp-23818,Ba1 Li1 H3,5,Cubic,221,64.54983172455981,3.789069851402205,12.909966344911961,1.16875057,-3.412171435999999,-0.6094920114166651,False,2.2146
mp-13277,Ba2 Li2 P2,6,Hexagonal,194,155.10607242231285,3.75221662641956,25.851012070385476,2.47323895,-3.990530986666667,-0.9094072093253971,True,0.9631000000000001
mp-10485,Ba2 Li2 Sb2,6,Hexagonal,194,194.0495200516029,4.552960364879973,32.34158667526715,2.9489126,-3.661213635,-1.008913952777778,False,0.6946999999999991
mp-643264,Ba1 Mg2 Fe1 H8,12,Trigonal,164,125.32209188913899,3.3104957020825703,10.443507657428249,1.85383462,-3.8839294525000003,-0.48299047833333303,False,1.447099999999999
mp-643451,Ba2 Mg4 H16 Ru2,24,Tetragonal,131,267.02935829191443,3.66982963218852,11.126223262163101,1.38522096,-3.99227172375,-0.524300972083333,False,1.910699999999999
mp-1041212,Ba4 Mg4 Cu4 F28,40,Monoclinic,14,540.859195489206,4.398557006447742,13.521479887230148,-0.6951162200000001,-5.201065054500001,-3.0965032295,False,0.24980000000000002
mp-1047850,Ba4 Mg4 V4 F28,40,Monoclinic,14,551.6237951230344,4.160949845626143,13.79059487807586,0.51226064,-6.29903321625,-3.696001451249999,False,2.529
mp-1196057,Ba4 Mn8 Si8 O28,48,Monoclinic,15,693.869501518146,3.9761824258033442,14.455614614961375,5.12157349,-8.412050859374999,-2.9346034744468383,False,2.6464
mp-19507,Ba4 Mn8 V8 O32,52,Tetragonal,142,727.4428301434161,4.356147794227285,13.989285195065694,2.30977585,-8.549388850576923,-2.54981148872016,False,2.2123
mp-1228782,Ba2 Mn16 O32,50,Monoclinic,13,557.3668269609952,4.962380253359956,11.147336539219905,2.32863218,-8.2133685268,-2.038069592537931,False,0.772899999999999
mp-540958,Ba4 Mn4 F20,28,Orthorhombic,19,397.66493840208676,4.7980249288650505,14.202319228645957,-0.37560808,-6.3626189014285774,-3.41258288613301,False,2.6390000000000002
mp-18840,Ba3 Mn3 O9,15,Trigonal,166,196.58101951817102,6.088581271505338,13.105401301211401,2.44818127,-7.674919523666667,-2.489944874252874,False,0.8952999999999991
mp-1204333,Ba8 Mn8 Sn8 Se32,56,Orthorhombic,43,1798.2905043524481,4.630401449536386,32.11233043486514,2.37416076,-5.330330942321429,-1.176872656936576,False,0.9066000000000001
mp-1542939,Ba1 Mo1 P2 O8,12,Triclinic,2,178.95251918590367,3.927054412332411,14.91270993215864,1.777415819999999,-8.0780083425,-2.813069997440477,False,1.704199999999999
mp-555195,Ba2 Mo4 P6 O28,40,Monoclinic,9,541.9092610681786,3.959730491762729,13.547731526704464,1.2929354,-8.030157351749999,-2.573749861446427,False,1.869699999999999
mp-554548,Ba2 Mo4 Se4 O22,32,Orthorhombic,36,523.5308120605014,4.206580795982517,16.360337876890668,0.48304887,-7.25106177,-1.936707446855468,False,2.5898
mp-1247744,Ba12 Na12,24,Cubic,227,1243.1412192930873,2.569737895798391,51.797550803878636,1.18941401,-1.641747642083333,-0.011399782772988,False,0.087899999999999
mp-31235,Ba3 Na3 Bi3,9,Hexagonal,189,338.0284172601914,5.442433346976936,37.558713028910155,2.5306748900000002,-3.139123878888887,-0.755547202681991,True,0.23550000000000001
mp-9732,Ba3 Na3 P3,9,Hexagonal,189,258.40216156773965,3.687802745154349,28.711351285304406,2.55397536,-3.655257892222225,-0.7632014775629471,True,0.8555
mp-1214563,Ba8 Na8 V8 F48,72,Orthorhombic,33,1124.0713611368092,3.8437997604368803,15.61210223801124,0.148758,-6.167634039166667,-3.5201100348754792,True,2.5539
mp-1227892,Ba4 Na4 V4 S16,28,Monoclinic,14,727.8927344946184,3.098167206492576,25.996169089093513,1.513206649999999,-5.715309060357143,-1.5870176234113291,False,1.5001
mp-28150,Ba2 Nb4 O12,18,Monoclinic,14,262.9269106779757,5.294185871731757,14.60705059322087,1.50559952,-8.97269352611111,-3.216098964999999,False,2.6146000000000003
mp-1188841,Ba1 Nb2 V2 O11,16,Trigonal,166,267.09771893645353,3.736500698365595,16.693607433528346,-0.41462679,-8.787195336249999,-2.867384822812499,False,2.1233
mp-1192672,Ba1 Nb2 Xe5 F22,30,Orthorhombic,69,633.6327694955655,3.662561472981337,21.12109231651885,-3.80518737,-4.341135815,-2.194228877666667,False,2.6409000000000002
mp-757688,Ba4 Nb32 O56,92,Orthorhombic,36,1213.2951127186752,6.046941159732788,13.187990355637774,4.27229282,-9.47233716826087,-2.863603719130435,False,0.325099999999999
mp-1195589,Ba4 Nd4 Sn8 S24,40,Orthorhombic,26,990.4039943731725,4.770871795227237,24.760099859329312,4.7025035299999995,-5.42870631725,-1.475063968499998,True,0.3689
mp-19118,Ba1 Nd2 Co1 O5,9,Orthorhombic,71,134.82386917603753,6.955554847572499,14.980429908448615,3.78416953,-7.841835722222227,-3.027558883333338,False,1.405899999999999
mp-18763,Ba1 Nd2 Ni1 O5,9,Orthorhombic,71,136.61773149537714,6.861310150521069,15.179747943930794,3.48386084,-7.673989253333334,-3.010076863333333,False,1.9985
mp-8514,Ba2 Nd4 Pd2 O10,18,Tetragonal,127,277.6697912663871,7.322571944393226,15.426099514799283,3.09211834,-7.571012658333334,-2.973795253888888,False,2.219099999999999
mp-556525,Ba2 Nd4 Pt2 O10,18,Tetragonal,127,280.0510729059642,8.31175924727279,15.558392939220234,3.74713785,-7.670508070555556,-2.974262720555556,False,2.5077
mp-1095616,Ba2 Nd2 Ag2 S6,12,Orthorhombic,63,310.8580545564483,5.188292394414823,25.904837879704022,2.83554753,-5.522952693333333,-1.8654295677777761,False,1.6623
mp-1191985,Ba4 Nd4 Cu4 S12,24,Orthorhombic,62,561.9950732183249,5.215793023128952,23.416461384096873,5.31757965,-5.759790811666666,-1.892889520833332,True,1.3142
mp-1214402,Ba2 Nd2 Cu2 Te6,12,Orthorhombic,63,397.3441731155758,6.084051945125941,33.11201442629798,4.25476958,-4.829026253333329,-1.459651799583329,False,0.513899999999999
mp-19388,Ba2 Ni4 As4 O16,26,Trigonal,148,352.03963450510724,5.024000972770849,13.539985942504124,2.14757306,-6.7538783715384625,-1.9536336480769232,False,2.8416
mp-613910,Ba1 Ni1 F6,8,Trigonal,166,107.75113969538981,4.777537182488796,13.468892461923726,-1.43126685,-5.0408789775,-2.64310074375,True,0.4727
mp-19138,Ba2 Ni2 O6,10,Hexagonal,194,133.449151553611,6.072761251153483,13.344915155361099,2.79794293,-6.328621400000001,-1.8200224730000012,False,1.469199999999999
mp-1190517,Ba2 Np2 H6 O12,22,Triclinic,2,298.6519207635106,5.263730089979317,13.5750873074323,1.10508661,-7.425023607272727,-2.448658155681818,False,1.458699999999999
mp-1214391,Ba4 Np4 O16,24,Orthorhombic,57,384.48920928818814,7.572177367466928,16.020383720341172,4.26877746,-9.241676927083333,-3.465243820208333,False,0.510799999999999
mp-1342,Ba1 O1,2,Cubic,225,43.453575205003915,5.859229670745691,21.726787602501958,1.72769767,-6.25711068,-2.8236427075,True,2.0906
mp-1105,Ba1 O2,3,Tetragonal,139,50.806471622351985,5.534178952108108,16.935490540783995,2.22834475,-6.108491646666668,-2.170192663333334,True,2.2352
mp-1105095,Ba6 P12,18,Monoclinic,14,494.0044283699264,4.019030353699522,27.44469046499591,4.15351328,-5.053009618333332,-0.8030356214285691,True,0.5585999999999991
mp-581294,Ba4 P8 Xe16 F80,108,Triclinic,2,2100.036638856598,3.493126805816978,19.444783693116648,-3.78040489,-4.053876268888889,-2.158629373677248,False,2.702499999999999
mp-1214414,Ba4 P8 Pd4 O28,44,Orthorhombic,62,669.3827575134713,4.144660692003875,15.21324448894253,2.44318425,-7.3892292225,-2.6105446010714273,False,0.7159999999999991
mp-7808,Ba2 P6,8,Monoclinic,12,201.85164283336917,3.788289939619789,25.231455354171146,4.17746109,-5.205943668749999,-0.66459478973214,False,0.5735
mp-28373,Ba4 P12 Pt8,24,Monoclinic,14,545.3318747981862,7.556686326755717,22.722161449924425,4.85662227,-5.949606952499994,-0.8983299264880871,False,0.129199999999999
mp-1227860,Ba4 P4 Pd4,12,Monoclinic,14,306.17743055838224,5.959741145846933,25.514785879865187,4.27710288,-5.120959548333334,-0.949516123214285,False,0.29559999999999903
mp-11008,Ba4 P4 Se12,20,Monoclinic,14,594.5640041838495,4.526466315493323,29.728200209192476,1.9483003700000001,-4.858490397499999,-1.294053817834819,False,2.1651
mp-1214389,Ba2 Pb6 O8,16,Hexagonal,190,337.12948598926937,8.106668232571463,21.070592874329336,5.24094079,-5.950479920625,-1.8443848993749992,True,2.0029
mp-19799,Ba1 Pb1 F6,8,Trigonal,166,127.13150999291322,5.988964398681737,15.891438749114153,-1.2041057,-5.169909093749998,-3.030567061249998,True,2.8927
mp-22230,Ba2 Pb2 O6,10,Orthorhombic,74,159.25972054852807,8.185414704735301,15.925972054852807,3.06685538,-6.203951158000001,-2.108850153,False,0.199299999999999
mp-1106270,Ba1 Pd1 I4 O12,18,Triclinic,1,321.65937982617254,4.870003424938772,17.869965545898474,2.36540115,-5.192237241111111,-1.160546170555555,False,1.905799999999999
mp-1205352,Ba2 Pd2 Se4 O12,20,Monoclinic,15,358.43638273384414,4.611080557246977,17.921819136692207,1.07570714,-6.079082126499999,-1.701237552968749,False,1.6510999999999991
mp-12623,Ba2 Pd2 F8,12,Tetragonal,140,209.51956411708267,5.068183307562875,17.459963676423556,-0.30216251,-5.310839361666666,-2.851794986666666,False,1.4527
mp-4009,Ba2 Pd2 S4,8,Orthorhombic,63,208.75574740353002,4.897990044023699,26.094468425441253,2.94562453,-5.314508426250001,-1.470614454999999,False,0.3649
mp-1194578,Ba4 Pr4 Sn8 S24,40,Orthorhombic,26,996.095273353655,4.721378902898131,24.902381833841375,4.68399861,-5.430423843,-1.474049091666665,True,0.3729
mp-18802,Ba1 Pr2 Ni1 O5,9,Orthorhombic,71,139.1338350640303,6.657640038101925,15.459315007114478,3.38221086,-7.650876320000001,-2.98089192425926,False,2.167399999999999
mp-9759,Ba2 Pr4 Pd2 O10,18,Tetragonal,127,276.30751127474406,7.278520009491049,15.350417293041337,3.01789009,-7.550922985555563,-2.947633575370378,False,2.138899999999999
mp-1214381,Ba2 Pr2 Cu2 Te6,12,Orthorhombic,63,404.4124354296097,5.95033372279594,33.701036285800804,4.6924646899999995,-4.830286669166667,-1.45635821111111,False,0.5658000000000001
mp-558588,Ba12 Pt24 S36,72,Tetragonal,92,1646.1046991091691,7.549908175402657,22.862565265405127,4.53793565,-5.642201862499992,-1.229481815416658,False,1.3649
mp-1214641,Ba4 Re8 O36,48,Triclinic,2,905.9366323333552,4.7930659354449965,18.873679840278232,-1.8786060900000001,-8.090008622916667,-2.144437589583334,True,0.41540000000000005
mp-989637,Ba4 Re4 N12,20,Monoclinic,15,383.35537609112504,6.33372480850784,19.167768804556253,1.54289253,-8.574175465000007,-0.6977909885000081,False,1.7855
mp-1194442,Ba1 Ru2 Xe5 F22,30,Orthorhombic,69,604.0496048918417,3.886818185839337,20.134986829728057,-3.01768877,-3.767978909666666,-1.6761988056666661,False,1.239299999999999
mp-733954,Ba6 Ru6 O30,42,Trigonal,167,701.3442071933421,4.52307728628853,16.69867159984148,-0.25163479,-6.9203364078571425,-1.787024621428571,False,0.895899999999999
mp-1500,Ba1 S1,2,Cubic,225,67.12620118023261,4.190346371817915,33.563100590116306,1.35700937,-5.35775155,-2.329084296249999,False,2.1488
mp-684,Ba2 S4,6,Monoclinic,15,181.1360806348224,3.693656366723054,30.1893467724704,2.20192847,-5.150796840000001,-1.752232148333333,False,1.598199999999999
mp-239,Ba2 S6,8,Tetragonal,113,203.75848204461352,3.80619643432229,25.46981025557669,3.4986224,-5.01708457,-1.433571159374998,False,1.391299999999999
mp-556539,Ba1 Sb2 Xe5 F22,30,Orthorhombic,69,623.829292995151,3.873726551724092,20.794309766505034,-3.35178057,-3.669150836333333,-1.9203974856666661,False,2.5745
mp-545500,Ba2 Sb2 Cl2 O4,10,Orthorhombic,63,218.58881379819084,4.9611910576658405,21.858881379819085,2.9501177800000002,-6.059967644999999,-2.501479447,False,2.8810000000000002
mp-18291,Ba8 Sb8 Te24,40,Orthorhombic,19,1480.0812310614283,5.761188872469049,37.002030776535705,4.52394115,-4.136793026999999,-1.041214254999998,False,0.620699999999999
mp-554796,Ba8 Sc24 Ag8 S48,88,Orthorhombic,62,2021.280682687211,3.762289808277832,22.969098666900127,3.30959572,-6.423789070227272,-2.006563857651513,False,1.4793999999999992
mp-1103664,Ba2 Sc2 Cu2 S6,12,Orthorhombic,63,259.3918326198694,4.379043563948019,21.61598605165578,4.50121004,-5.999252324166666,-1.871630754583332,False,0.8353
mp-1253,Ba1 Se1,2,Cubic,225,74.09331260733886,4.84730673334938,37.04665630366943,1.13655998,-4.99120499,-2.283761781171875,False,1.948799999999999
mp-7547,Ba2 Se4,6,Monoclinic,15,204.26639959932737,4.80029195950115,34.04439993322123,1.72622645,-4.678540316666667,-1.7082743515625,False,0.6166
mp-7548,Ba2 Se6,8,Tetragonal,113,234.39922365187726,5.301940277908506,29.299902956484658,2.62290274,-4.492955081249999,-1.391277738007811,False,0.926
mp-1477,Ba8 Si16,24,Orthorhombic,62,713.4763881255375,3.602765206042742,29.728182838564063,3.44813571,-4.569430252083339,-0.312893252083338,False,0.7812999999999991
mp-1190822,Ba2 Si18 Rh4,24,Monoclinic,15,423.45831231392066,4.673554184934157,17.64409634641336,7.15363407,-5.83492446875,-0.378636722916666,False,0.17930000000000001
mp-3777,Ba4 Si4 N8,16,Orthorhombic,64,246.6843825252166,5.208132921173995,15.417773907826037,4.54581667,-7.311447308125,-1.306235193125001,False,2.9202
mp-19248,Ba1 Sm2 Co1 O5,9,Orthorhombic,71,134.01289889793503,7.149260860064488,14.89032209977056,3.7906928300000002,-7.880000538888889,-3.076737321666666,False,1.4676
mp-8515,Ba2 Sm4 Pd2 O10,18,Tetragonal,127,269.8907419369051,7.684197392200426,14.99393010760584,2.878633149999999,-7.595667315,-3.009463532222222,False,2.032
mp-540635,Ba2 Sn2 Ge6 O18,28,Hexagonal,188,443.892838197006,4.623335565565327,15.853315649893071,1.37985654,-6.946768812500001,-2.35182028357143,False,2.7866
mp-696946,Ba2 Sn4 H4 O8,18,Monoclinic,4,313.82125066977557,4.664438717845297,17.434513926098642,2.6117992,-5.963961252222222,-1.906150635833333,False,2.102
mp-27802,Ba6 Sn12 S18,36,Monoclinic,11,1006.5100469387643,4.661757275932973,27.958612414965675,4.16969251,-4.984643634166663,-1.259110742083328,False,1.569499999999999
mp-555954,Ba2 Sn2 Hg2 S8,14,Orthorhombic,40,412.90762635603335,4.704334098247069,29.49340188257381,1.90201418,-4.396596062142857,-1.1406450475,False,1.8593000000000002
mp-3163,Ba1 Sn1 O3,5,Cubic,221,71.13628093297905,7.097114448493584,14.22725618659581,4.12362011,-6.741954234,-2.587468271999999,False,0.372399999999999
mp-12181,Ba4 Sn4 S8,16,Monoclinic,14,478.3870129393772,4.44535321366255,29.899188308711075,3.25787854,-5.09428270375,-1.542966221249999,False,1.638
mp-1227831,Ba1 Sr3 Co4 O12,20,Orthorhombic,25,252.93597145364132,5.435293267772989,12.646798572682066,2.45493636,-6.77202315,-2.0267502425,False,0.0437
mp-559427,Ba2 Sr8 U6 O28,44,Orthorhombic,64,716.0714952307584,6.613133774285526,16.27435216433542,2.3818883,-8.720735642727275,-3.637355124545455,False,2.0784
mp-559151,Ba2 Sr2 Ta4 O14,22,Orthorhombic,71,327.09406626590385,7.095504625774085,14.86791210299563,1.90232739,-9.122442114090909,-3.487807100424242,False,2.1929
mp-561103,Ba12 Ta24 O72,108,Hexagonal,191,1583.9133795123248,7.488172127239577,14.665864625114118,1.6858958400000001,-9.588454677314814,-3.439499560055555,False,2.1161
mp-1095278,Ba2 Tb2 Ag2 Te6,12,Orthorhombic,63,399.5190995489643,6.541426014729041,33.29325829574702,4.06637131,-4.605500253333333,-1.467217933055554,False,0.7735000000000001
mp-1095403,Ba2 Tb2 Cu2 Te6,12,Orthorhombic,63,381.6084327033496,6.462716571707856,31.800702725279134,4.63185538,-4.8031599950000015,-1.455499509444444,False,0.530999999999999
mp-1000,Ba1 Te1,2,Cubic,225,89.09415786940792,4.9377158257892155,44.54707893470396,2.12107087,-4.534715075000001,-2.003574658333334,False,1.593
mp-2150,Ba2 Te4,6,Tetragonal,140,239.7574117339152,5.437216004973213,39.9595686223192,4.25340327,-4.209713794999999,-1.474518219444442,False,0.12530000000000002
mp-8234,Ba2 Te6,8,Tetragonal,113,292.64589875671544,5.902636645603349,36.58073734458943,4.48828638,-4.038821412499999,-1.201598257499998,False,0.8198000000000001
mp-5431,Ba2 Te2 O6,10,Monoclinic,11,189.26378785886058,5.49100834768368,18.926378785886058,2.38545908,-6.338290204000003,-2.357057434333336,False,2.7149
mp-754967,Ba4 Te4 O16,24,Orthorhombic,60,415.81225789301755,5.254218824941958,17.3255107455424,1.728531359999999,-6.392481994583332,-2.25012785236111,True,2.1894
mp-27499,Ba4 Te4 S12,20,Orthorhombic,62,585.3496576133798,4.097770834982159,29.26748288066899,2.95834208,-4.684428414500002,-1.1889565073333341,False,1.9088
mp-1195483,Ba4 Th8 S20,32,Monoclinic,14,813.5882950710367,6.218768431408333,25.424634220969896,6.2487522,-7.062422996875,-2.382611837187498,True,1.735999999999999
mp-1206598,Ba2 Th2 N4,8,Hexagonal,194,158.31725131904096,8.335951408423462,19.78965641488012,5.23058322,-7.865167231249998,-1.362820061249998,False,0.435799999999999
mp-1214314,Ba1 Ti1 As2 O8,12,Monoclinic,12,189.26556511108424,4.062457895340247,15.772130425923686,0.4092471,-7.421882796666666,-2.527016124861111,False,2.4211
mp-1227524,Ba1 Ti1 I6 O18,26,Trigonal,146,437.27666328889603,4.688377730488108,16.81833320341908,4.80102637,-5.507377426153846,-1.352691243974359,False,2.7339
mp-1214296,Ba1 Ti1 P2 O8,12,Monoclinic,12,170.7780288650733,3.647595593286182,14.231502405422775,1.04938495,-8.209489948333333,-3.190398111051586,False,2.592399999999999
mp-1198551,Ba4 Ti4 S24 O84,116,Monoclinic,14,1804.6705170041123,2.626325803727318,15.557504456932003,-0.88868148,-6.8807061305172414,-2.103057666149424,True,2.7332
mp-558159,Ba4 Ti8 O20,32,Orthorhombic,62,443.41902471964363,4.68942476647537,13.856844522488863,1.65799044,-8.838330958125063,-3.532110458333396,False,2.8033
mp-5777,Ba1 Ti1 O3,5,Orthorhombic,38,65.57310741671338,5.905237274567591,13.114621483342678,2.85356728,-8.423947971999999,-3.492277977666666,False,2.2929999999999993
mp-754897,Ba4 Tl8 O16,28,Orthorhombic,62,437.50258818563117,9.262393404255945,15.625092435201113,3.49277041,-5.445678471785714,-1.666569444166668,False,0.8200000000000001
mp-1227825,Ba2 U4 V4 O24,34,Monoclinic,7,567.2576560506778,5.3116663548852845,16.684048707372877,2.47151628,-9.129214188823529,-3.126558944117646,False,1.9806999999999992
mp-574430,Ba2 U2 I12,16,Monoclinic,9,867.2365129083009,4.35330409941076,54.20228205676881,1.19679467,-4.284310932499999,-1.490003352499997,False,0.19989999999999902
mp-5611,Ba4 U4 O16,24,Orthorhombic,57,391.8449842635073,7.447472308714998,16.326874344312802,2.78559322,-9.168461641249998,-3.6680901462499973,True,2.1144
mp-1194611,Ba4 U4 Te24,32,Monoclinic,14,1142.2583600522219,6.634582606115611,35.69557375163193,5.5849036,-5.05319119875,-1.044413659999998,False,0.181699999999999
mp-560110,Ba4 U4 Ti4 O24,36,Monoclinic,14,574.8657814472051,5.9992017351777465,15.96849392908903,2.16717218,-9.265580193611111,-3.6218420828703692,False,1.9643000000000002
mp-19458,Ba2 V20 O30,52,Orthorhombic,64,553.0849630878657,5.324515712460244,10.636249290151264,4.94676628,-8.943557727115385,-2.52134808423077,False,0.8558000000000001
mp-18723,Ba1 V2 Ni2 O8,13,Trigonal,148,172.85266077953702,4.6553170991573705,13.296358521502848,2.93330096,-7.750973118461539,-2.271684773846154,False,0.016199999999999