material_id,composition,nsites,crystal_system,space_group,volume,density,density_atomic,efermi,energy_per_atom,formation_energy_per_atom,is_gap_direct,band_gap
mp-9160,La16 Au8 O36,60,Orthorhombic,60,929.6978450125982,7.81278292381069,15.494964083543303,5.11463361,-7.562714216833332,-2.8411514525,True,1.8922999999999992
mp-1211788,La16 C4 I24 N4,48,Tetragonal,136,2012.9538654502146,4.431723481307497,41.93653886354614,3.21318219,-5.565804271458334,-1.694550325833335,False,1.1841
mp-1196663,La32 In8 Sb8 S72,120,Tetragonal,92,3058.8233614247547,4.693793145334563,25.490194678539623,5.33577758,-6.16634561875,-1.907849651361111,False,2.2196
mp-560796,La4 Mn1 Cu6 S10,21,Triclinic,2,405.2297474671834,5.378267924423869,19.29665464129445,6.98551328,-14.72074189047619,-1.430588446790845,False,1.038699999999999
mp-18292,La8 Mn2 S12 O2,24,Hexagonal,186,537.5439950901946,5.059669013696348,22.39766646209144,6.10286562,-7.350770060833334,-2.460423217327586,False,2.3212
mp-2767430,La4 Pt1 O7,12,Monoclinic,8,186.71342971764847,7.672452081394361,15.559452476470705,7.2459339,-20.921817965,-3.234319605833332,False,0.9344000000000001
mp-556958,La8 S6 N4,18,Orthorhombic,58,428.8725942844584,5.264429360337543,23.826255238025468,6.20392749,-20.155365757777776,-2.2285191567708322,False,1.1943
mp-559256,La8 S6 N2 Cl6,22,Hexagonal,186,543.7241374853946,4.716506964609137,24.714733522063394,5.12743511,-6.74536809909091,-2.559639620227273,False,2.9165
mp-1205351,La8 Se6 N4,18,Monoclinic,15,459.08677898952743,5.935686844135055,25.504821054973746,5.28133036,-7.318708523888887,-2.106673152447916,False,1.657699999999999
mp-4412,La4 Se3 O4,11,Orthorhombic,38,232.0095319763418,6.130139718602654,21.09177563421289,5.88861057,-7.803638065454547,-3.256037440639207,False,1.3261
mp-15897,La16 Si8 S12 O28,64,Tetragonal,141,1078.12507775302,5.051788378588689,16.845704339890936,6.37296685,-8.176235937187501,-3.323394048593751,False,2.5019
mp-14912,La16 Si8 Se12 O28,64,Tetragonal,141,1130.124127863576,5.646204107560204,17.658189497868374,6.06346278,-7.9946070434375,-3.262224171689453,False,2.2305
mp-641010,La16 Te12 N8,36,Orthorhombic,62,1044.5368044447914,6.145512655759488,29.01491123457754,6.664519999999999,-6.973612454999998,-1.8791122783333312,False,0.8813000000000001
mp-1223217,La8 Ti6 S8 O16,38,Monoclinic,5,614.809717179527,5.161299943008752,16.179203083671762,5.83182588,-8.504127698421053,-3.263726078421053,True,0.6467
mp-569576,La20 Si12 N36,68,Orthorhombic,64,976.8000765397011,6.152862172501688,14.364707007936781,8.11385044,-16.76134318602941,-1.6316990183088231,True,1.965199999999999
mp-1185199,La10 Al4 Ru6,20,Cubic,199,496.20832511692885,7.038937306479015,24.81041625584644,8.17971071,-6.4549328405,-0.455493359999999,False,0.005900000000000001
mp-29070,La20 C8 Br36,64,Orthorhombic,62,1907.4424382535824,5.006351216586854,29.803788097712225,4.34668202,-5.6174736846875,-2.000605851875,False,1.8211
mp-619791,La10 C4 Cl18,32,Triclinic,2,795.8341246532757,4.330093523284892,24.869816395414865,6.32828609,-6.036954064374999,-2.3010633325,False,1.6562000000000001
mp-571432,La40 C16 I72,128,Orthorhombic,61,5175.653946346577,4.77581658142058,40.43479645583263,4.73447892,-5.104572930625,-1.5512304278125,True,1.5131000000000001
mp-1224631,La40 Se48 N8,96,Monoclinic,9,2642.179277573183,5.944321719264883,27.522700808053987,5.55491504,-6.748855357187499,-2.249373512526041,True,1.588099999999999
mp-37829,La5 Tl1 Se8,14,Tetragonal,82,385.6909876306893,6.58974580897221,27.54935625933495,5.85629195,-6.061291300714283,-2.131377053363095,False,1.300399999999999
mp-35907,La5 Tl1 Te8,14,Tetragonal,82,469.22281853696626,6.793690342751184,33.515915609783306,7.23603219,-5.446872235000037,-1.7184468929762282,False,1.211599999999999
mp-1223157,La6 Cd1 Si2 S14,23,Trigonal,143,545.3795800179767,4.417688953866145,23.712155652955506,5.20285317,-6.323140190869565,-2.002978328913043,True,1.946899999999999
mp-1200333,La24 Co4 Cl44,72,Tetragonal,86,1885.9179282688006,4.516401492355984,26.193304559288897,6.23128282,-16.672109388055556,-2.262123819583334,False,0.631699999999999
mp-1223466,La6 Mg1 Ge2 S14,23,Trigonal,143,548.7822109711776,4.3933327626029754,23.860096129181635,5.03139795,-6.268693672608697,-1.989145746521739,False,2.008599999999999
mp-1223141,La6 Mg1 Si2 S14,23,Trigonal,143,541.1410520523092,4.18192979949516,23.52787182836127,5.29862965,-6.433143816956522,-2.083831527826087,False,1.9699
mp-1223191,La6 Mn1 Si2 S14,23,Trigonal,143,540.6964978876545,4.279445619305464,23.50854338641976,6.04368946,-6.690871720434782,-2.014100940997001,False,1.1259000000000001
mp-31322,La6 Os1 I10,17,Triclinic,2,746.7909142370244,5.097987043853152,43.92887730806026,4.72212944,-4.86281759647059,-1.5637860547058842,False,0.0879
mp-1223425,La12 S6 O4 F16,38,Monoclinic,6,661.5179408696101,5.590775945682024,17.40836686498974,7.9733726,-7.44863927131579,-3.909804411184211,True,2.6035
mp-559994,La24 S16 Br4 N12,56,Orthorhombic,62,1342.3872636986916,5.361755962823712,23.971201137476637,5.94152001,-7.420147952500001,-2.2186293332142872,False,1.4091
mp-1223262,La12 Sb8 S6 O24,50,Tetragonal,122,922.6833055470552,5.7901639454226554,18.453666110941104,8.3453657,-7.598027529200001,-2.8811211951000013,True,1.957899999999999
mp-1223361,La6 Si2 Ni1 S14,23,Trigonal,143,533.0659420050562,4.352401813964648,23.176780087176354,5.80887481,-6.501578800434783,-1.971846221521738,False,0.9031000000000001
mp-19992,La6 U1 O12,19,Trigonal,148,315.59230277800435,6.647866844247905,16.610121198842336,4.99692121,-9.217710924736844,-3.939659098421054,False,1.972799999999999
mp-1223149,La6 Zn1 Si2 S14,23,Trigonal,143,538.2193600433737,4.331447105346356,23.40084174101625,5.23913908,-6.344439614782608,-2.011245865,False,1.9847000000000001
mp-555890,La28 Ru12 O72,112,Trigonal,167,1609.7769391435847,6.451366077141019,14.373008385210579,6.19286435,-8.424244422589286,-3.015724585267859,True,0.405199999999999
mp-1202486,La28 Ru12,40,Orthorhombic,62,1191.4783491701469,7.110822511731111,29.786958729253673,7.96139759,-6.518327621,-0.280801885500001,False,0.044599999999999
mp-570305,La28 Sb44 Br16,88,Orthorhombic,62,2702.8710566187483,6.466309466518017,30.71444382521305,6.81516639,-5.318458287727273,-1.385783309772727,False,0.014199999999999002
mp-1195582,La32 Sb8 S60,100,Tetragonal,110,2564.341926855344,4.754928966575054,25.64341926855344,7.22930955,-6.505227304099999,-2.112369190799999,True,1.935799999999999
mp-1223370,La16 Si10 N28 O2,56,Triclinic,2,827.3701294242129,5.875576078198987,14.774466596860945,9.99665008,-8.421011535714287,-1.69606523482143,False,2.3602
mp-1223592,La18 Al10 S42,70,Trigonal,146,1640.5755781266969,4.166940023074544,23.436793973238526,7.39616572,-6.417503664428571,-2.130146692642856,False,2.175
mp-1223486,La18 Al10 Se42,70,Trigonal,146,1866.0061229324901,5.416252955095548,26.657230327607003,4.7796837199999995,-19.100470406714283,-1.9031481682946412,False,1.694
mp-1224434,La18 In2 Si6 S42,68,Trigonal,146,1638.334192117486,4.302713726476539,24.093149884080677,5.3036552,-6.447397873970588,-2.024905441740195,True,1.9284
mp-567777,La18 Sb32 Br6,56,Hexagonal,176,1740.4654092658661,6.560278111615265,31.07973945117618,6.99710515,-5.35561419875,-1.234224077678571,False,0.22779999999999903
mp-1195616,La4 Ag4 I16 O48,72,Monoclinic,9,1220.8089489120114,5.149071643337414,16.95567984600016,5.81874917,-5.355893298472222,-1.286419559398148,False,2.6566
mp-1223057,La1 Ag1 Mo2 O8,12,Tetragonal,82,166.16266330675398,5.662779874577867,13.846888608896165,2.51065146,-8.015912742499944,-2.261418322222167,False,2.5972
mp-753260,La1 Ag1 O2,4,Trigonal,166,77.42572969016877,5.9787951496226635,19.35643242254219,2.59894838,-6.987022248749989,-2.568305550416656,False,2.826699999999999
mp-1079283,La1 Al1 H6,8,Trigonal,166,77.11134527059274,3.702492803109261,9.638918158824092,3.6539724,-7.58502247,-0.4340783521875,False,2.476499999999999
mp-1102055,La4 As8,12,Monoclinic,14,305.69977572160457,6.273847546429921,25.474981310133714,6.49246895,-20.9631913025,-1.243243909166667,False,0.18400000000000002
mp-1079050,La2 As2 O6,10,Monoclinic,11,141.51370411239242,6.144579313856287,14.151370411239242,5.73894676,-7.753694633,-2.863692102500001,False,2.692999999999999
mp-1103471,La4 As4 S4,12,Orthorhombic,62,288.30050422897494,5.665108210533685,24.025042019081244,6.72874296,-19.396640072500002,-1.9008699809375,True,0.054000000000000006
mp-28853,La4 Au4 O12,20,Orthorhombic,57,302.0584155163614,8.441168934491103,15.102920775818069,4.2695541,-6.925627539500001,-2.314873115500002,False,1.797699999999999
mp-29597,La6 B6 N12,24,Triclinic,2,305.6007564033665,5.794371635269059,12.733364850140271,6.9589824,-15.443102330833334,-1.6059433945833321,False,2.172799999999999
mp-1205991,La1 Bi2 Cl1 O4,8,Tetragonal,123,148.50309973895799,7.338835382018139,18.562887467369748,4.08909277,-6.7218508475,-2.427293029375001,False,1.3154
mp-546672,La1 Bi2 I1 O4,8,Tetragonal,123,159.5889019714755,7.780607084812007,19.94861274643444,4.87872658,-6.555715865000001,-2.301724320000001,False,1.2225000000000001
mp-1206717,La1 Bi1 Pd1,3,Cubic,216,83.03927624455808,9.08476903265567,27.67975874818603,6.75189554,-38.16708436333334,-1.09791517666667,False,0.121699999999999
mp-23263,La2 Br6,8,Hexagonal,176,253.37225341251914,4.962730462902288,31.671531676564893,1.81661217,-4.884754481249999,-2.423042803749999,False,2.9266
mp-1180738,La2 Br6 O14,22,Triclinic,2,409.61358152195265,3.977810005226655,18.618799160088756,2.0177464,-5.120367600454545,-1.07649726,False,2.1086
mp-556405,La2 C2 N4 F2,10,Orthorhombic,63,134.55084062885328,4.885396930044567,13.455084062885328,4.87308511,-8.472591712,-1.921575619499999,True,2.682799999999999
mp-1078624,La2 Co2 C4,8,Monoclinic,9,107.82985885429412,6.833122275504938,13.478732356786765,8.42327351,-7.90993912625,-0.27825042375000103,False,0.042199999999999
mp-989643,La2 Co2 N6,10,Monoclinic,12,156.9199040239598,5.076409550800055,15.691990402395978,5.55904143,-14.714296219,-0.641243549249998,False,0.49010000000000004
mp-1288145,La2 Co2 O6,10,Trigonal,148,118.07297697836468,6.914735764099035,11.807297697836468,5.95606719,-7.982587506,-2.599926138,False,0.9497000000000001
mp-1106068,La1 Cr4 Cu3 O12,20,Cubic,204,206.68212350570292,5.861162793761313,10.334106175285147,4.92870449,-7.8054863455,-2.04441889275,False,0.20620000000000002
mp-24050,La4 Cr4 H4 O20,32,Monoclinic,14,431.0876709930837,4.189508656350392,13.471489718533865,1.59687153,-7.7297782890625,-2.38927503421875,False,2.5457
mp-19281,La4 Cr4 O12,20,Orthorhombic,62,236.61766314523803,6.706217884389386,11.830883157261901,6.30265858,-9.0832108625,-3.1966233445,True,2.3706
mp-1105175,La2 Cr2 Te2 O12,18,Trigonal,163,249.08943012038506,5.5264494513375695,13.838301673354726,4.12085665,-7.82323561611111,-2.554332671851851,False,2.758499999999999
mp-20072,La1 Cu1 O2,4,Trigonal,166,72.1429818425825,5.396420033751985,18.035745460645625,4.19604131,-7.421987267499986,-2.689203321249986,False,2.521599999999999
mp-4841,La4 Cu4 S8,16,Monoclinic,14,330.76607768599985,5.353256881280149,20.67287985537499,6.79762452,-15.85122335375,-1.685829761406248,True,1.234599999999999
mp-6088,La2 Cu2 S2 O2,8,Tetragonal,129,135.84241264338414,6.124617206709288,16.980301580423017,7.42975286,-6.8852715025,-2.354887915625,True,1.668499999999999
mp-11790,La4 Cu4 Se8,16,Monoclinic,14,373.31215317310466,6.411909168631721,23.33200957331904,5.96075017,-18.850806891875,-1.547132725156249,True,0.8712000000000001
mp-552488,La2 Cu2 Se2 O2,8,Tetragonal,129,146.14257085077844,6.758638028487416,18.267821356347305,7.09944263,-6.68391434375,-2.314142779335937,True,1.5380999999999991
mp-10288,La4 Cu4 Te4 S4,16,Monoclinic,14,378.7423888627738,6.350580899062273,23.671399303923362,7.38505929,-5.64057968999999,-1.561359881041657,True,0.5769000000000001
mp-558977,La12 Er12 S36,60,Orthorhombic,62,1405.4097717016073,5.704815482612086,23.42349619502679,5.41449624,-6.831274340333334,-2.447513416833332,True,1.135899999999999
mp-1078634,La2 Fe2 O6,10,Trigonal,167,115.45061726760383,6.982962229917882,11.545061726760384,5.52079262,-8.50290807,-2.852925804,False,1.950899999999999
mp-1297758,La4 Fe4 Te4 O24,36,Trigonal,163,501.50872012813716,5.540731741193557,13.930797781337143,3.98304994,-7.491150279166667,-2.35369469712963,False,2.478199999999999
mp-4816,La12 Ga12 S36,60,Monoclinic,14,1399.3919751039664,4.34049606706342,23.323199585066106,4.5043381799999995,-14.742639420500002,-1.6841287401874991,True,2.2366
mp-28255,La8 H8 O8,24,Tetragonal,129,370.8574462763354,5.584880435065513,15.452393594847308,4.94895083,-6.936521233333331,-2.510143050416665,False,2.431499999999999
mp-1212028,La4 H4 Se8 O28,44,Monoclinic,4,627.9228540334583,4.335165757814915,14.27097395530587,2.04862397,-6.403823502045454,-1.862121362585226,True,2.6835
mp-765350,La8 H8 Se24 O80,120,Orthorhombic,61,1949.3881083434069,3.657994879312186,16.244900902861723,1.4032952,-6.196848361666667,-1.643613826552084,False,1.5911
mp-1200097,La8 Ho8 S24,40,Monoclinic,11,946.3289521611864,5.615525156412775,23.65822380402966,5.7599419,-19.807661092750003,-2.4614368194375,True,0.758799999999999
mp-27979,La2 I6,8,Orthorhombic,63,331.13842768628007,5.211400295711964,41.39230346078501,2.97576586,-4.2079932975,-1.8309820600000002,False,2.0709
mp-1106374,La4 Lu4 S12,20,Orthorhombic,62,484.78207567773165,5.618467249845161,24.239103783886584,4.42531927,-20.8474945185,-2.46156299152083,True,2.232199999999999
mp-703316,La4 Mg8 H28,40,Tetragonal,92,383.04047460936687,3.373981092560822,9.576011865234172,3.3859791,-3.65036908175,-0.454057861125,False,2.645
mp-1194207,La4 Mo4 Br4 O16,28,Monoclinic,7,466.8509654349486,5.388651648256424,16.673248765533877,5.348198659999999,-7.9453658775000005,-2.629587624642856,True,1.8558000000000001
mp-1204388,La8 Mo8 Cl8 O32,56,Monoclinic,14,926.0648725181354,4.795445334505783,16.53687272353813,5.53875635,-8.059944158035714,-2.713937867321429,True,2.7474
mp-989631,La4 Mo4 N12,20,Monoclinic,15,326.46148161474116,5.63308226021011,16.323074080737058,4.45450499,-9.272825628000001,-1.113527538000002,False,2.0751
mp-29183,La4 Nb28 O48,80,Monoclinic,14,1018.7866298606734,6.3973835986162495,12.734832873258418,5.33137577,-9.63264050475,-2.8816067825,True,0.41629999999999906
mp-1222992,La2 Nd2 Co4 O12,20,Orthorhombic,26,233.72013919466167,7.062334945330837,11.686006959733083,4.58726844,-7.933371391499999,-2.567495990749999,False,1.0783
mp-2804,La8 P16,24,Monoclinic,9,556.8459061815292,4.7916199361889245,23.20191275756372,7.34736905,-17.17703847375,-1.260727530734127,False,0.5563
mp-1864,La4 P20,24,Monoclinic,11,526.0347018161955,3.709440970476049,21.91811257567481,7.06882829,-13.137768880000001,-0.678575252480158,True,0.11390000000000002
mp-200,La4 P28,32,Monoclinic,14,658.729887501915,3.586841669646944,20.585308984434842,6.43917177,-12.10971631125,-0.514802012604166,False,0.861699999999999
mp-1191492,La8 P8 S8,24,Orthorhombic,62,559.5556655975059,4.794322454441837,23.31481939989608,7.05104877,-17.483708861666667,-1.889756995262895,False,0.339699999999999
mp-560571,La8 P8 S32,48,Tetragonal,142,1206.9722188183716,3.281413336965101,25.145254558716076,3.40973272,-13.137268307708332,-1.322792833412696,False,2.4374000000000002
mp-1222782,La1 Pa1 O4,6,Tetragonal,123,83.87554665281081,8.590973266345161,13.979257775468469,6.63051539,-9.846143724999997,-4.134119007499997,False,2.329699999999999
mp-560665,La2 Pb12 Br2 O14,30,Orthorhombic,63,682.3884616807068,7.660437972329734,22.74628205602356,3.67864328,-6.110507997333333,-1.8782037909999991,False,1.930499999999999
mp-556523,La2 Pb12 Cl2 O14,30,Monoclinic,12,675.5957553605919,7.518947831352811,22.519858512019727,3.6215832,-6.150787462,-1.904376837999999,False,2.1393
mp-1002107,La2 Rh2,4,Orthorhombic,63,94.43624981194559,8.503865056417112,23.609062452986397,7.92994453,-6.890009814999999,-0.7398523274999991,False,0.08119999999999901
mp-5163,La4 Rh4 O12,20,Orthorhombic,62,250.62051880749198,7.6807669369413905,12.531025940374601,7.03522013,-7.973849524000007,-2.545009926000008,False,0.5939999999999991
mp-1508,La8 S16,24,Orthorhombic,62,557.9655833265863,4.8339659637129095,23.248565971941094,6.71840804,-17.413096317916665,-2.1415035281249972,False,0.6312999999999991
mp-1211452,La8 S8 Br8,24,Orthorhombic,61,711.417339097452,4.684584817975648,29.6423891290605,6.15440784,-6.056585963749998,-2.486148227916665,False,2.790799999999999
mp-5394,La2 S2 F2,6,Tetragonal,129,114.13195763048722,5.5278248430274495,19.021992938414538,6.29530716,-17.087878088333333,-3.452609009270832,True,1.488099999999999
mp-1211464,La8 S8 I8,24,Orthorhombic,61,776.3809724122401,5.096806773038662,32.34920718384334,4.37789811,-5.744614104166669,-2.211821008333336,True,2.1752
mp-28626,La8 S8 O8,24,Orthorhombic,64,467.2996584628443,5.315146592375424,19.470819102618513,6.89959832,-7.7254010875,-3.051291861666667,False,1.522899999999999
mp-680334,La8 Sb8 S16 Br16,48,Monoclinic,14,1413.515368490898,4.5543360146358545,29.448236843560377,3.21730412,-5.099208547083333,-1.663271788749999,False,2.1637
mp-2031203,La4 Sb4 Se4,12,Orthorhombic,62,340.76961937820425,6.619854926931992,28.39746828151702,7.10893349,-25.00373651,-1.749517788020834,False,0.2904
mp-1185210,La4 Sb4 Te4,12,Orthorhombic,62,382.3975990156232,6.744079803916021,31.866466584635265,7.18322635,-5.568124983333329,-1.498686903888884,False,0.018600000000000002
mp-1190131,La4 Sc4 S12,20,Orthorhombic,62,458.30319977671337,4.058837585146462,22.91515998883567,5.12157966,-15.42371525,-2.3740622886875,True,1.6446
mp-570668,La4 Se8,12,Monoclinic,14,315.6735091103255,6.245570498278901,26.30612575919379,6.0960542,-21.481116876666665,-2.025149987708332,False,0.23869999999999902
mp-1102246,La4 Se4 Cl4,12,Orthorhombic,62,304.89742644983494,5.5185144804172275,25.408118870819578,5.60988813,-19.253780535833332,-2.517520758020834,True,1.336
mp-7738,La2 Se2 F2,6,Hexagonal,194,126.93658909664725,6.19713697545978,21.156098182774542,5.41403732,-19.076587191666665,-3.349131063020832,True,1.726099999999999
mp-1232374,La8 Si8 P24,40,Orthorhombic,33,883.7565491181256,3.906908122213661,22.09391372795314,6.71384438,-13.96679719975,-0.861842452535711,False,0.5185000000000001
mp-757365,La2 Ta6 O18,26,Monoclinic,12,367.0814310692704,7.4707112558655755,14.118516579587324,1.935738499999999,-10.068023209999982,-3.524297150153828,False,2.4693
mp-550514,La2 Ta2 N4 O2,10,Monoclinic,12,133.42307958564874,9.057113041682872,13.342307958564874,7.45401204,-9.901027112,-2.215536883466666,False,0.671299999999999
mp-1222878,La4 Ta4 Ti4 O24,36,Orthorhombic,33,453.0028251261466,6.799249245276648,12.583411809059628,3.39540075,-9.69685823750002,-3.65394793812965,False,2.918799999999999
mp-1222843,La1 Tb3 Mo4 O14,22,Trigonal,166,292.0197672836479,6.956921135955189,13.27362578562036,5.06879751,-8.90320101090909,-2.925762261590908,False,0.27780000000000005
mp-10383,La4 Te4 As4,12,Orthorhombic,62,346.59911567945096,6.54304021541837,28.883259639954247,6.87711119,-5.691545626666667,-1.441733783055556,False,0.126699999999999
mp-1103189,La4 Te4 Cl4,12,Orthorhombic,62,343.7077239389574,5.835351387271301,28.64231032824645,6.6062012,-5.622914180833324,-2.313628914722213,True,0.8821000000000001
mp-1223983,La2 Ti12 P18 O72,104,Triclinic,2,1385.8487646374267,3.069456157208374,13.325468890744487,1.1805816,-8.462772548173078,-3.09402606522665,False,2.421299999999999
mp-556399,La4 Ti4 I20 O64,92,Monoclinic,14,1461.203247840001,4.896989371807511,15.88264399826088,2.9312804100000003,-5.875358608586957,-1.5441004226449282,False,2.8734
mp-1222719,La1 Ti1 Sb1 O6,9,Trigonal,149,125.7439563436964,5.342093661873452,13.971550704855154,3.67561661,-8.259931616666668,-3.076790906481482,False,2.7433
mp-1195614,La4 Tl4 P8 S24,40,Monoclinic,14,1002.1763249281051,3.960907012987237,25.054408123202627,6.01662806,-5.43930657525,-1.142448207511904,False,2.4808
mp-1195547,La4 Tl4 P8 Se24,40,Monoclinic,14,1112.2217144588938,5.24934072625522,27.805542861472343,5.08057461,-4.8863207735,-0.9749312596681551,False,1.777499999999999