material_id,composition,nsites,crystal_system,space_group,volume,density,density_atomic,efermi,energy_per_atom,formation_energy_per_atom,is_gap_direct,band_gap
mp-28198,Rb6 In6 I24,36,Trigonal,161,1770.8512877879937,3.982836020629088,49.19031354966649,-0.15057108,-2.781558616111106,-1.142265570138884,True,2.6023
mp-601861,Rb8 In8 S16,32,Monoclinic,15,966.4425750723993,3.6345482043226403,30.20133047101248,1.31763347,-4.196917323125,-1.192810585416665,True,2.4133
mp-31309,Rb8 In8 Se16,32,Monoclinic,15,1090.723180976666,4.362718131653469,34.085099405520815,1.03884631,-3.8318458106250013,-1.148963117838542,True,1.646199999999999
mp-22255,Rb2 In2 Te4,8,Tetragonal,140,300.4374799500486,5.035004056799484,37.554684993756084,2.78316982,-3.4174415899999993,-0.9108616893749981,False,1.1111
mp-510073,Rb4 Li4 H16 N8,32,Orthorhombic,62,358.45555763985493,2.306123123700689,11.201736176245467,-0.06927999,-4.6588213965625,-0.5154866235416671,True,2.6836
mp-18741,Rb2 Li2 Cr2 O8,14,Trigonal,159,225.4559545030534,3.069872282503141,16.103996750218098,-1.48059398,-6.709837588571429,-2.090644955833333,False,2.9916
mp-8751,Rb2 Li2 S2,6,Tetragonal,129,141.37180095227257,2.924113667306753,23.56196682537876,0.96175389,-3.687206526666666,-1.344601024444443,False,2.745
mp-9250,Rb2 Li2 Se2,6,Tetragonal,129,159.04830640169496,3.578341620031604,26.50805106694916,0.62183477,-3.465912768333332,-1.33745662939236,False,2.3089
mp-18422,Rb4 Li4 Zn8 O12,28,Tetragonal,136,382.95712825734665,4.7042311016697465,13.677040294905238,0.91274911,-4.688345854642857,-1.7950848297619042,True,2.0623
mp-1219554,Rb1 Li1 Zn1 S2,5,Tetragonal,119,111.49661651958509,3.30550831182563,22.299323303917017,1.03850678,-3.811901705999999,-1.326717769166666,True,2.5255
mp-23738,Rb6 Mg6 H18,30,Hexagonal,194,428.6656151988668,2.6216685563204,14.288853839962227,0.12862134,-2.884899170666666,-0.325598489916666,False,2.540499999999999
mp-15282,Rb4 Mn16 As12 O48,80,Orthorhombic,58,1153.5139005114913,4.157286622268609,14.418923756393642,1.36207646,-7.531664888750003,-1.980940143836209,False,1.722999999999999
mp-556158,Rb2 Mn12 As14 O48,76,Monoclinic,11,1049.5022595464998,4.188229261200258,13.809240257190787,3.38426251,-7.369539075921053,-1.911787821383848,False,1.4179
mp-568231,Rb6 Mn6 Br18,30,Hexagonal,185,955.5399878525553,3.963416745872707,31.85133292841851,1.26446142,-4.543790978666667,-1.533113184752874,True,1.2358
mp-569309,Rb6 Mn6 Cl18,30,Hexagonal,194,789.3611759695846,3.114640125663711,26.312039198986152,1.55256938,-4.961344522000001,-1.823708969086208,False,1.3133
mp-1219557,Rb1 Mn1 Cu1 S2,5,Tetragonal,119,109.92790064882303,4.049566798249158,21.985580129764607,3.91967195,-5.426699002,-0.9230039680862071,False,0.1549
mp-558749,Rb1 Mn1 F3,5,Cubic,221,75.81974583115912,4.323308649455128,15.163949166231825,0.70073129,-6.190304176,-3.013482878086206,False,2.943699999999999
mp-553981,Rb4 Mn4 F16,24,Monoclinic,14,364.0201510272656,3.9485699091536612,15.167506292802734,-1.26837393,-5.913054671666667,-2.946728194238506,True,2.3279
mp-1029835,Rb16 Mn16 N32,64,Cubic,227,1047.4762240042082,4.271856173623708,16.366816000065754,3.24649489,-7.15710731515625,-0.452331101514009,True,0.049599999999999006
mp-18301,Rb4 Mn4 O16,24,Orthorhombic,62,406.82705168644196,3.337240278030764,16.95112715360175,-2.07532758,-6.458905990833329,-1.469840426738501,False,2.137099999999999
mp-1203377,Rb4 Mn4 P8 O28,44,Monoclinic,14,628.3499665587548,3.322919414074234,14.280681058153517,1.82689535,-7.637080618863636,-2.581696668837886,True,1.1481
mp-559311,Rb8 Mn8 V8 O32,56,Hexagonal,173,1056.2108972591373,3.211557523079022,18.860908879627452,-0.13522466,-7.915200575892856,-2.34115779666872,True,2.7318
mp-15405,Rb4 Mo8 P12 O52,76,Monoclinic,4,1216.0008787300603,3.158634086212748,16.000011562237635,0.6133307100000001,-7.903049729078948,-2.469273522048873,False,2.2787
mp-676313,Rb4 Mo12 Br28,44,Monoclinic,9,1443.2552838245651,4.292088828317521,32.8012564505583,0.51082804,-5.315716857954545,-1.226979571818182,True,2.2939
mp-1209508,Rb4 Mo12 Cl28,44,Monoclinic,15,1257.527719396066,3.282493418683314,28.580175440819684,3.324152439999999,-5.748114642272725,-1.524725187499998,True,2.5766
mp-554787,Rb4 Mo4 I4 O24,36,Orthorhombic,33,615.8191890029092,4.360827681171304,17.106088583414145,0.90448989,-6.418916998055555,-1.636921128333333,False,2.6081
mp-16856,Rb4 Mo4 P8 O28,44,Monoclinic,14,635.6035745919183,3.713474545142833,14.445535786179962,2.24873862,-7.807149092272727,-2.5987074315259733,True,2.8783000000000003
mp-1198591,Rb4 Mo4 P4 O24,36,Orthorhombic,70,574.7277312273445,3.563939064404949,15.96465920075957,0.02687557,-7.596661239722222,-2.382280824404761,False,2.8368
mp-752580,Rb3 N3 O6,12,Trigonal,152,206.1037755799305,3.177766398269908,17.175314631660875,0.04640668,-6.059858983333334,-1.256175526458334,False,2.078799999999999
mp-8872,Rb2 Na4 B2 O6,14,Orthorhombic,59,200.356644332597,3.153660473874979,14.311188880899786,1.38380392,-5.84409255,-2.245913919203612,False,2.9274999999999993
mp-556968,Rb8 Na24 Sn8 O32,72,Tetragonal,88,1219.5920718032553,3.6723227145154933,16.93877877504521,1.56997395,-5.051728265555555,-1.850938011848658,False,2.3483
mp-550300,Rb1 Na7 Co2 O6,16,Monoclinic,12,260.91390982681986,2.929234432850423,16.30711936417624,1.52413388,-4.8540604525,-1.458611765447198,False,0.28890000000000005
mp-1200468,Rb4 Na32 Ga12 As24,72,Orthorhombic,62,1915.044780516155,3.218975712950574,26.597844173835487,2.00734452,-3.150686699999999,-0.438502057557471,True,0.4329
mp-1202177,Rb4 Na32 Ga12 P24,72,Orthorhombic,62,1755.4434747233001,2.513913011634438,24.381159371156947,1.89006652,-3.367777860694444,-0.407142887299534,True,0.903999999999999
mp-1219559,Rb1 Na1 Cd3 O4,9,Monoclinic,8,162.09374658603886,5.221405110924684,18.01041628733765,0.39107362,-4.183375767777778,-1.4062502743199221,True,0.43970000000000004
mp-8799,Rb2 Na2 S2,6,Tetragonal,129,166.63596727557243,2.800634458976748,27.772661212595406,0.61649192,-3.365335245,-1.21179710545977,False,2.2945
mp-6708,Rb2 Nb4 P2 S20,28,Monoclinic,7,755.2394482961494,2.739149719386445,26.97283743914819,2.39425571,-5.939813501071429,-1.08394111872449,False,1.5518
mp-1192452,Rb2 Nb4 P2 Se20,28,Monoclinic,7,820.3111227677284,4.420436847423867,29.296825813133157,2.31733993,-5.313836686428571,-0.9168557968271671,False,0.912999999999999
mp-1201687,Rb4 Nb12 Te8 O48,72,Orthorhombic,57,1118.5526048576505,4.8181113709505485,15.535452845245146,3.79537243,-7.882399367916666,-2.496477532407408,False,2.403299999999999
mp-1209219,Rb2 Nb2 Cl12,16,Monoclinic,15,453.55319600139586,2.86371631489842,28.34707475008724,1.02899118,-4.68390614625,-1.9122691571875001,False,2.2919
mp-1029493,Rb16 Nb16 N32,64,Orthorhombic,61,1293.752074641811,4.238396473864339,20.214876166278298,1.29795989,-7.86020133609375,-0.9206026854687501,False,1.8791
mp-562977,Rb4 Nb4 S8 O36,52,Orthorhombic,62,843.3393075954183,3.044071668914228,16.218063607604197,0.23675501000000002,-7.183709211538462,-2.269077881346154,False,2.7814
mp-1219576,Rb2 Nb2 Te2 O12,18,Orthorhombic,74,284.52498528327305,4.691945426510151,15.806943626848502,3.44308897,-7.167359137777778,-2.288146800462963,False,2.274499999999999
mp-1195415,Rb4 Nb4 V8 O32,48,Orthorhombic,62,799.0942531539831,3.393437123827221,16.64779694070798,-1.01946426,-8.330989267916667,-2.594877660208334,False,2.5161
mp-27409,Rb2 Ni2 Br6,10,Hexagonal,194,292.0606172205687,4.365096884934357,29.20606172205687,1.24427153,-3.600229622,-1.2659275505,False,0.47230000000000005
mp-23486,Rb2 Ni2 Cl6,10,Hexagonal,194,247.98095497605672,3.35508490248867,24.798095497605672,1.42430059,-4.012759160000002,-1.551499329500001,False,0.7089000000000001
mp-1209298,Rb2 P30,32,Triclinic,2,798.9282985612765,2.286612578600145,24.96650933003989,4.3323753400000005,-5.23931468625,-0.10102487669642701,False,1.5046
mp-556953,Rb2 P2 S6,10,Orthorhombic,71,282.46844577595846,2.500040790174273,28.246844577595844,0.97225391,-4.741105191999996,-0.978887931928566,False,1.8376000000000001
mp-571464,Rb6 P6 Se18,30,Trigonal,152,936.9033196344337,3.757298610076806,31.230110654481123,1.00377956,-4.181909743666669,-0.80516133750149,False,1.122999999999999
mp-17945,Rb4 P4 Se24,32,Orthorhombic,29,979.0433013472184,4.004124228298113,30.595103167100575,1.20035796,-4.116510074375,-0.695075516400669,False,1.8728999999999991
mp-8014,Rb1 Ru1 F6,8,Trigonal,166,128.712571678186,3.877157002542467,16.08907145977325,-2.1891649,-5.1704564525,-2.4532000946875,True,1.1801
mp-9062,Rb6 S6,12,Hexagonal,189,418.74230969876413,2.796485592496512,34.89519247489701,0.80819312,-3.718430895833331,-1.15898407583333,False,1.5781
mp-10487,Rb8 Sb8,16,Monoclinic,14,686.7533728171279,4.008540721674215,42.922085801070494,2.31061394,-3.069903603124999,-0.5151359468749981,False,0.7347
mp-568018,Rb2 Sb4,6,Monoclinic,12,249.76683744463685,4.374456592588111,41.627806240772806,3.25886014,-3.48861219166667,-0.409100007500003,False,0.267599999999999
mp-1209255,Rb4 Sb8 P4 O32,48,Monoclinic,9,695.4168468826954,4.660636392372685,14.48785097672282,2.10679526,-6.738953692291666,-2.219145515803571,False,2.266299999999999
mp-1198114,Rb4 Sb12 Se20,36,Orthorhombic,62,1121.5089692501547,5.007771468886056,31.153026923615407,3.7981721,-4.142685657499999,-0.715230637413194,True,0.6848999999999991
mp-1209179,Rb2 Sb2 Cl12,16,Monoclinic,15,466.6226639178981,2.9888664253877133,29.16391649486863,1.19513191,-3.540201436875,-1.515102422812499,True,2.0641
mp-1219606,Rb2 Sb2 Mo2 O12,18,Orthorhombic,46,284.0355824586067,4.667216285725267,15.779754581033707,1.3537672,-7.111303558333333,-2.039864508055555,False,2.4282
mp-10418,Rb2 Sb2 O4,8,Monoclinic,15,167.90834010311085,4.731690097417999,20.988542512888856,2.28549276,-5.61573791,-1.864373579375,False,2.2483
mp-10621,Rb4 Sb4 S8,16,Triclinic,2,489.07996330808464,3.6852888012734573,30.56749770675529,1.97539408,-4.311409661875,-0.9648460499999991,False,1.9492999999999991
mp-1189259,Rb4 Sb4 Se8,16,Triclinic,2,542.575632156056,4.470102607251972,33.9109770097535,1.6573885700000002,-3.950202596875,-0.9248630299218751,False,1.5375
mp-13336,Rb1 Sc5 Te8,14,Monoclinic,12,451.3463408598273,4.897029045509031,32.239024347130524,4.35194202,-5.605538172857142,-1.477729119702379,False,0.3281
mp-9063,Rb6 Se6,12,Hexagonal,189,473.2466674527814,3.461688852513694,39.437222287731785,0.34982075,-3.402452095833332,-1.164229320755207,False,0.9245000000000001
mp-1074,Rb32 Si32,64,Cubic,218,2247.7077668818056,2.684472685563524,35.12043385752821,1.99835135,-3.208539375624999,-0.005613324374999001,False,1.412499999999999
mp-11054,Rb16 Sn16,32,Tetragonal,142,1356.4954757100998,3.9990722505575063,42.39048361594062,2.78066032,-2.773702828125,-0.278649864374999,False,0.877899999999999
mp-15108,Rb8 Sn8 As8 O40,64,Orthorhombic,33,1023.9693727323827,4.658683095446553,15.99952144894348,1.20335953,-6.32274671890625,-2.022742533281251,True,2.0723
mp-998778,Rb4 Sn4 Br12,20,Orthorhombic,62,701.0268168324552,4.205809743460504,35.05134084162276,0.58821243,-3.5038129585,-1.523623852,False,2.5418000000000003
mp-998611,Rb2 Sn2 Cl6,10,Trigonal,161,351.0235235553608,2.938028100191553,35.10235235553608,0.93858553,-3.88993258,-1.7827857145000001,True,2.3264
mp-29405,Rb4 Sn4 I12,20,Orthorhombic,62,862.5786152100532,4.503866369000728,43.128930760502655,1.89530325,-3.064690358999999,-1.152261604499999,False,2.0077
mp-554199,Rb2 Sn2 I2 O12,18,Hexagonal,182,319.8376926509737,4.434629390729569,17.76876070283187,0.893044499999999,-5.537228591111111,-1.514796971944444,False,2.1663
mp-557059,Rb16 Sn16 S64,96,Orthorhombic,60,2786.7803153611867,3.169397751644508,29.028961618345694,2.8125752200000003,-4.5007127042708355,-0.9101220046875,True,1.4729
mp-975115,Rb2 Tc2 O8,12,Tetragonal,88,222.20086716420715,3.698689114728971,18.516738930350595,-1.68488165,-7.348203695833334,-2.159367522916668,False,2.9741
mp-8360,Rb4 Te4,8,Orthorhombic,55,322.43639110788814,4.389174615419019,40.30454888848602,2.26910384,-3.110644263333331,-1.048724280416663,False,0.8245999999999991
mp-6125,Rb2 Ti4 P6 O24,36,Trigonal,167,489.361453143884,3.1633208267358,13.593373698441221,0.83831003,-8.158135682222222,-3.025165085449734,False,2.6058
mp-1219566,Rb4 Ti4 Nb4 O20,32,Orthorhombic,62,472.80712947817005,4.302138693515294,14.775222796192814,3.19370523,-8.5698407721875,-3.105198752916667,False,2.6967
mp-6539,Rb8 Ti8 P8 O40,64,Orthorhombic,33,924.842685345289,3.509171333173997,14.450666958520141,0.91604502,-7.917452675625,-3.038539595684524,True,2.7021
mp-758985,Rb4 Ti4 P4 S20,32,Monoclinic,12,897.99191954194,2.401209633625602,28.062247485685624,1.06749408,-5.6230950140625,-1.250182832559522,False,1.2097
mp-15998,Rb2 V2 Cu4 S8,16,Orthorhombic,40,377.0057409669853,3.4510612053993652,23.56285881043658,2.58987402,-5.43586768625,-1.083831217187499,False,1.108099999999999
mp-556847,Rb2 V2 I4 O16,24,Triclinic,2,418.32975934416595,4.1140446871685175,17.430406639340248,0.96672994,-5.868886619583333,-1.477540501875,False,2.7622
mp-559279,Rb4 V4 P8 O32,48,Monoclinic,14,731.7962879554492,2.962137382959626,15.245755999071859,1.87816059,-7.631558406666667,-2.591635470565476,False,2.1013
mp-560376,Rb2 V4 I6 O26,38,Orthorhombic,46,606.7683316337764,4.247657366100454,15.967587674573062,1.40305265,-6.135166824473684,-1.501278554868421,False,1.7589000000000001
mp-622258,Rb4 V8 Sb4 O32,48,Orthorhombic,62,750.0184121418148,3.871006777940369,15.625383586287809,0.19580208000000002,-7.481109622708334,-2.242689998333334,False,2.7554
mp-623590,Rb4 V8 Se4 O28,44,Orthorhombic,62,753.0190316117701,3.336929676839793,17.1140689002675,1.24575124,-7.335510387045454,-2.128239048394886,False,2.0481
mp-16917,Rb2 V6 Se4 O24,36,Hexagonal,173,538.2731134128945,3.6291522774764,14.95203092813596,0.42536958,-7.239527832777778,-1.983994094010417,False,2.3219
mp-1219122,Rb2 V6 Cd8 O24,40,Monoclinic,9,596.6435258079553,4.897921734454512,14.91608814519888,2.49208623,-6.5964340335,-2.024042778375,False,2.3178
mp-16864,Rb2 V6 O16,24,Monoclinic,11,330.7479767445294,3.677934537008821,13.781165697688726,-0.37615943,-8.020188418750001,-2.3688600585416673,False,2.0696
mp-2760180,Rb1 V5 Se8,14,Triclinic,1,303.3048433758951,5.320731692807905,21.66463166970679,3.8454274,-15.272628039285715,-1.067540765982142,False,0.1421
mp-568136,Rb6 V6 Br18,30,Trigonal,165,929.5890108093449,4.031227382216596,30.986300360311496,2.8317403800000003,-4.5440290690000005,-1.5489731195,False,0.607899999999999
mp-23319,Rb2 V2 Cl6,10,Hexagonal,194,263.03230905853485,3.065222274213907,26.303230905853486,3.43788076,-4.993331596000002,-1.871317887500001,False,0.40230000000000005
mp-556424,Rb1 V1 F3,5,Cubic,221,73.12138287356564,4.392090674799269,14.624276574713127,2.2673747,-6.195787120000003,-3.034587666500003,False,2.2325
mp-1029312,Rb2 V2 N4,8,Tetragonal,122,137.02217535689567,3.9851989807445642,17.12777191961196,2.16143941,-7.60028163875,-0.9150327306250011,False,0.5831000000000001
mp-559739,Rb4 V4 O4 F12,24,Orthorhombic,55,411.2544928460822,3.382074881985205,17.13560386858676,-0.67426775,-6.434108675833333,-2.975115630416667,False,2.7001
mp-18436,Rb4 V4 P8 O28,44,Monoclinic,14,632.9832693179507,3.25665894537226,14.385983393589788,1.59505241,-7.78735277840909,-2.7390696667532453,False,1.9638
mp-12024,Rb4 V4 Se8,16,Orthorhombic,70,515.6752493416097,3.791109243416577,32.22970308385061,1.907040509999999,-5.427059926875,-1.162994152421875,False,0.0483
mp-999265,Rb1 Y1 S2,4,Trigonal,166,109.65482276389511,3.611739259334195,27.413705690973778,1.7111618100000001,-6.032695564999999,-2.091109388124998,False,2.3166
mp-16764,Rb2 Y2 Te4,8,Hexagonal,194,300.7279415103493,4.743981049611957,37.59099268879366,2.85543072,-5.035678081250001,-1.591618741458334,False,1.356299999999999
mp-975140,Rb1 Zn4 P3,8,Tetragonal,123,164.32523349486002,4.446540741473401,20.540654186857502,2.9895138,-3.082649767499999,-0.29940863142857005,True,0.194799999999999
mp-1209995,Rb4 Zr24 B4 Cl60,92,Orthorhombic,51,2701.6570221708025,2.889822298625778,29.36583719750872,1.35605119,-5.948975244021739,-2.180528651702898,False,0.0026000000000000003
mp-567966,Rb4 Zr24 C4 Cl60,92,Orthorhombic,51,2683.179963372794,2.912692181465529,29.164999601878197,1.88805165,-6.084061299021739,-2.204776718804348,False,1.2072
mp-1209676,Rb2 Zr12 Mn2 Cl28,44,Orthorhombic,64,1173.92467225515,3.349841456671618,26.680106187617046,2.57142526,-6.022134874090909,-2.053573403883229,False,1.2076
mp-555669,Rb2 Zr2 Mn2 F14,20,Orthorhombic,63,319.49561375098426,3.790121150778813,15.974780687549213,0.10866364,-6.779103085999999,-3.570381424043103,False,2.3454
mp-1194813,Rh8 Se36 Br24,68,Tetragonal,88,2019.5051024666452,4.591035628994768,29.6986044480389,0.69376481,-3.998550986764709,-0.703639325064342,True,1.3799000000000001
mp-974381,Rh4 S6,10,Trigonal,167,163.22288044051223,6.144883119255724,16.322288044051223,6.11222071,-15.08653634,-0.6110454386875,False,0.4203
mp-27871,Rh2 Br6,8,Monoclinic,12,217.16068197962676,5.239712257895749,27.145085247453345,0.72983111,-3.91458344125,-0.8457965725000001,False,1.2584
mp-27770,Rh2 Cl6,8,Monoclinic,12,183.44843663475277,3.788441960880535,22.931054579344096,0.98383133,-11.43302078625,-0.784634455624997,False,1.521199999999999
mp-2068,Rh2 F6,8,Trigonal,167,93.24210571822658,5.695310568602026,11.655263214778323,0.83282575,-10.15320715875,-1.7746290387499992,False,0.862599999999999
mp-1209109,Rh4 F24,28,Orthorhombic,62,376.3218799290218,3.828256250055379,13.440067140322208,-3.53907393,-7.506231192142857,-1.378746002142857,False,0.5939999999999991
mp-1206891,Rh2 I6,8,Monoclinic,12,277.3315105367346,5.791394507225584,34.66643881709182,3.0137478,-3.5508435725,-0.5667571437499991,False,1.0096
mp-1179727,Rh12 S12 Cl60,84,Monoclinic,15,2257.253434182464,2.756336906850699,26.87206469264838,0.8560010100000001,-3.835235555714285,-0.871609636071428,True,1.5419
mp-556834,Ru2 Cl2 O4 F12,20,Monoclinic,13,319.7016457138174,2.934752342147153,15.98508228569087,-1.61598631,-4.7921180915,-1.5419199315,False,0.562
mp-28437,Ru8 Cl8 F64,80,Orthorhombic,54,1282.8709504429746,2.987564730852795,16.035886880537184,-1.73688069,-4.268338057999999,-1.624961623999999,True,1.12
mp-974434,Ru2 F8,10,Monoclinic,14,126.86488029743303,4.635184231260965,12.686488029743304,-0.15343898,-9.470013682,-1.8842842629999992,False,0.18130000000000002
mp-540829,Ru8 F40,48,Monoclinic,14,641.2443581227958,4.061710740004784,13.359257460891579,-2.2327293,-8.714482279166667,-1.872036438333334,False,0.710199999999999
mp-554791,Ru8 O32,40,Cubic,218,606.9473917988681,3.612849510630859,15.173684794971702,-2.96590731,-6.99522299375,-1.181973681749999,True,2.4654
mp-2030,Ru4 S8,12,Cubic,205,178.51153198083136,6.146853388312788,14.875960998402613,7.57206877,-14.518220976666667,-0.6867098235416661,False,0.6683999999999991
mp-29568,Ru2 S6 Cl16,24,Triclinic,2,623.0275879275,2.563401642789309,25.9594828303125,0.46912496000000004,-3.761725990833332,-0.721907353958332,False,1.860199999999999
mp-1922,Ru4 Se8,12,Cubic,205,212.95075599608094,8.078168322945961,17.745896333006744,5.90710577,-18.5393966125,-0.523511360208331,False,0.313799999999999
mp-27288,Ru4 Xe4 F28,36,Monoclinic,14,622.0148590557476,3.901392163329858,17.278190529326324,-3.35721933,-4.159700006944444,-1.636639636388888,False,0.903999999999999
mp-30984,S2 I4 O12,18,Monoclinic,15,295.4156453756228,4.293006331059745,16.41198029864571,1.64699859,-5.238041249999999,-1.1409133802777771,False,1.8938000000000001
mp-1202716,S8 I8 O44,60,Orthorhombic,33,874.7537361651671,3.7505136036242703,14.579228936086118,3.06409331,-5.620680033833336,-1.237192339166669,False,2.614099999999999
mp-540798,S6 N4 O28,38,Monoclinic,9,506.70229170365866,2.282206780814309,13.334270834306807,-0.54425861,-6.4319795718421044,-1.254974926447367,False,1.405
mp-1191944,S4 I2 O15,21,Triclinic,1,308.32703673732817,3.350192195492908,14.682239844634674,0.33145325000000003,-5.881360851904762,-1.4136999673809512,False,2.374399999999999
mp-1197503,S10 I4 O36,50,Monoclinic,15,778.4385950161465,2.99549100211219,15.568771900322929,2.66707492,-5.9531297204000015,-1.441004874100001,False,2.738