material_id,composition,nsites,crystal_system,space_group,volume,density,density_atomic,efermi,energy_per_atom,formation_energy_per_atom,is_gap_direct,band_gap
mp-1113554,Cs2 In1 Ag1 Br6,10,Cubic,225,353.49438392160664,4.54680718945434,35.349438392160664,0.27526028,-3.196848984,-1.472874406764367,True,0.255599999999999
mp-1096926,Cs2 In1 Ag1 Cl6,10,Cubic,225,304.58082800161606,3.8229427688852953,30.458082800161606,0.49316851,-3.590027715999999,-1.739095379764367,True,1.3421
mp-1113588,Cs2 In1 Ag1 F6,10,Cubic,225,197.85352728528312,5.056538959944953,19.785352728528313,0.34243885,-4.522919119,-2.6328010377643682,False,2.1888
mp-572797,Cs2 Ir1 F6,9,Trigonal,164,167.27133905589335,5.6785506561594765,18.585704339543707,0.42314036,-15.87798129111111,-2.396600496666666,False,0.077699999999999
mp-650532,Cs4 K4 Cd6 O10,24,Triclinic,2,518.4625642348631,4.876203997048263,21.602606843119293,0.81056046,-4.026169947083333,-1.384625765317528,True,1.2436
mp-556400,Cs8 K8 Te4 O20,40,Tetragonal,136,851.150596926891,4.304577033392288,21.278764923172275,1.69176401,-4.9778268365,-1.781646286047701,False,2.024899999999999
mp-13687,Cs2 K1 Ag1 F6,10,Cubic,225,208.1176689227674,4.202999935790856,20.81176689227674,-1.26382864,-4.123233788999999,-2.3958961098227,False,0.637099999999999
mp-1112787,Cs2 K1 Ce1 Br6,10,Cubic,225,431.53879038882735,3.5572329815681583,43.153879038882735,1.5816666700000002,-4.030825145,-2.160229750656034,False,0.314
mp-1205683,Cs2 K1 Cr1 Cl6,10,Cubic,225,303.6862010938659,3.114668186432675,30.36862010938659,0.227834999999999,-12.771129536,-1.948814964874999,True,1.553499999999999
mp-6968,Cs2 K1 Cu1 F6,10,Cubic,225,189.63176826523807,4.224607574091428,18.963176826523807,-1.11106775,-4.42382984,-2.570865261656034,False,0.8990999999999991
mp-1113046,Cs2 K1 In1 Br6,10,Cubic,225,407.8961888244725,3.66043062327514,40.78961888244725,-0.82756999,-3.298167038,-1.7453492563227,True,2.3584
mp-572298,Cs4 K2 Mn6 F24,36,Monoclinic,15,638.221245924545,3.630606315815386,17.72836794234847,0.04966957,-5.925326223611112,-2.958681821408525,False,0.810199999999999
mp-560861,Cs2 K1 Mn1 F6,10,Tetragonal,139,196.02478412073387,4.013910600488281,19.60247841207339,-0.40957645000000004,-5.34270701,-2.983461569449137,False,1.7435
mp-561561,Cs2 K1 Rh1 F6,10,Cubic,225,197.3869952378786,4.389741030554179,19.73869952378786,0.51287658,-4.819195582,-2.639720883656034,True,2.101299999999999
mp-1112710,Cs2 K1 Sc1 I6,10,Cubic,225,498.6199352419907,3.700902317308783,49.861993524199065,0.40750000000000003,-3.482100328,-1.639713362156034,False,2.3591
mp-1213735,Cs2 La10 Ru2 I17,31,Monoclinic,12,1368.5286643671343,4.870952021912913,44.14608594732691,4.86601145,-4.634156259677419,-1.549219300784205,False,0.0035
mp-1111848,Cs2 Li1 Ce1 Br6,10,Cubic,225,369.3712906453785,4.011371762223144,36.93712906453785,2.19666667,-4.080962559,-2.132611850264368,False,0.29090000000000005
mp-1112624,Cs2 Li1 Gd1 Cl6,10,Cubic,225,303.8073981630197,3.512954311167277,30.38073981630197,-0.64583333,-5.372070982999999,-2.482845278264368,True,2.782
mp-989405,Cs2 Li1 In1 Br6,10,Cubic,225,341.24210917394936,4.218931981310846,34.12421091739493,0.14427298,-3.332439542999999,-1.701866446931034,True,1.318
mp-18722,Cs8 Li4 Mn4 O16,32,Orthorhombic,36,626.1742792153523,4.154833555272912,19.56794622547976,1.09877833,-5.966675541875,-1.88183337694684,False,1.818
mp-573030,Cs4 Li2 Nb2 S8,16,Triclinic,2,517.5907132718243,3.169185941430116,32.349419579489016,0.50775897,-5.28896612125,-1.491513456580459,False,2.4582
mp-1112834,Cs2 Li1 Nd1 I6,10,Cubic,225,460.19808341280844,4.252111686883407,46.01980834128084,0.8075,-3.435626035,-1.671915922014368,True,2.9743
mp-1113008,Cs2 Li1 Pr1 I6,10,Cubic,225,463.79916774634745,4.207158973151472,46.379916774634744,0.78083333,-3.43708473,-1.670642214431034,True,2.960899999999999
mp-1226312,Cs2 Li1 V3 F12,18,Trigonal,166,298.01127605244045,3.641665333299292,16.55618200291336,2.102965799999999,-6.225474591111111,-3.228650995702426,True,2.163399999999999
mp-510338,Cs4 Li2 V2 S8,16,Orthorhombic,70,514.4434748556815,2.917662755867517,32.152717178480096,0.46980156,-5.125186450625,-1.454908657205459,True,1.5877999999999992
mp-1195667,Cs8 Mg4 Ge12 Se32,56,Orthorhombic,19,1893.353603018135,3.998287018480614,33.80988576818098,0.8645955200000001,-4.216589168214286,-0.9821034152185961,True,1.4687000000000001
mp-1195633,Cs8 Mg4 Sn12 Se32,56,Orthorhombic,19,2131.4275062781826,3.982393736084318,38.06120546925326,2.3060305,-4.116384246071429,-1.013353350218596,True,1.4299
mp-2884,Cs4 Mn6 S8,18,Orthorhombic,72,500.5668097699611,3.707998303331973,27.809267209442282,3.0347527,-15.316018411666667,-1.2708065944109181,False,0.409699999999999
mp-556529,Cs8 Mn4 Bi8 S20,40,Orthorhombic,62,1241.6718110148208,4.809265409329641,31.04179527537052,3.90054709,-4.9372416247499995,-0.9922579357241381,True,0.8597999999999991
mp-600186,Cs8 Mn4 Br16,28,Orthorhombic,62,1117.2483742546233,3.807035351734129,39.90172765195083,-0.21680644000000002,-4.231480440714287,-1.727800930320198,False,2.6151
mp-1025252,Cs2 Mn1 Cl4,7,Tetragonal,139,224.45757030811163,3.422029941389792,32.06536718687309,1.39948301,-14.774618332857143,-1.9874760092118242,False,1.2335
mp-1205772,Cs2 Mn1 Cl6,9,Cubic,225,271.06588978204536,3.267997717951813,30.11843219800504,-0.65486921,-13.009416804444445,-1.696653019942529,False,1.342299999999999
mp-555223,Cs2 Mn1 F5,8,Tetragonal,123,171.79439807986878,4.018490249696171,21.474299759983598,-0.10760909,-5.5449619225,-2.9765578840301723,False,1.3155000000000001
mp-505300,Cs8 Mn4 O16,28,Orthorhombic,62,590.675384391784,4.326482476866932,21.095549442563712,0.63024248,-6.124286465357143,-1.7285986863916252,False,0.6356
mp-505034,Cs4 Mn2 S4,10,Orthorhombic,72,334.5696733583736,3.820468986199854,33.45696733583736,2.63146687,-17.513562005,-1.319514237021553,False,1.1924000000000001
mp-15126,Cs16 Mn8 Si40 O96,160,Orthorhombic,61,2730.22045116263,3.178096638378945,17.06387781976644,3.23695012,-7.8972174091875,-3.023212777049569,True,2.4585
mp-22235,Cs4 Mn2 Sn2 Te8,16,Orthorhombic,70,701.6585999653698,4.495855654929207,43.853662497835614,1.71294626,-4.258053828125,-0.8129580954885051,False,0.38220000000000004
mp-610744,Cs4 Mn2 Te4,10,Orthorhombic,72,447.8726228907591,4.270793439780648,44.78726228907591,2.18923075,-24.277363095000002,-1.130425235896555,False,1.0568
mp-1214995,Cs8 Mo12 P12 O68,100,Monoclinic,14,1631.4408079503871,3.7397001495668922,16.31440807950387,0.88741408,-7.7812100951000005,-2.3926235698295573,True,2.2994
mp-18353,Cs4 Mo6 Se2 O24,36,Hexagonal,173,580.0416801045106,4.721224356135626,16.112268891791963,0.51389579,-7.369369590555556,-1.968016867869673,False,2.4983
mp-560635,Cs8 Mo4 S16,28,Orthorhombic,62,962.6527121610711,3.3810001822702143,34.38045400575254,0.49428329,-16.66508330785714,-1.175243055178571,True,1.735799999999999
mp-866654,Cs8 Mo4 Se16,28,Orthorhombic,62,1055.5781285492235,4.263696401057949,37.69921887675798,1.76744466,-4.941802681428571,-1.135338229812192,True,1.224
mp-504852,Cs8 Na12 In4 O16,40,Monoclinic,14,786.5286297984863,4.337265688034061,19.66321574496216,1.6929101800000002,-4.45314455575,-1.613931031761493,False,2.428599999999999
mp-562541,Cs8 Na12 Tl4 O16,40,Monoclinic,14,805.2439453110411,4.97525051961851,20.131098632776027,1.57965383,-4.222834446999999,-1.422391085678161,True,1.7763
mp-989642,Cs2 Na1 Al1 H6,10,Cubic,225,160.4560085531268,3.330576687851367,16.045600855312678,0.84859158,-3.041490223,-0.314065184818965,False,1.8894000000000002
mp-1197430,Cs8 Na4 As28,40,Monoclinic,14,1350.1549077645577,4.000834270108674,33.753872694113944,1.60841543,-3.930116762249999,-0.345263397568965,True,1.4374
mp-1110566,Cs2 Na1 As1 Br6,10,Cubic,225,360.6457263484521,3.88214034721374,36.06457263484521,-0.42281781,-3.316161395999999,-1.5512136298189652,False,2.559
mp-1079458,Cs2 Na1 Ce1 Cl6,10,Cubic,225,343.03321229138083,3.105994996861796,34.303321229138085,2.86335249,-4.480264822,-2.461676563068965,False,0.36010000000000003
mp-1112656,Cs2 Na1 Ce1 I6,10,Cubic,225,497.57799560521465,3.972466408061819,49.75779956052146,2.67946585,-3.495044934,-1.6711747860689652,False,2.3813
mp-558211,Cs4 Na2 Co2 F12,20,Trigonal,166,347.34605819497705,4.414682124281374,17.36730290974885,-0.8054026,-4.883175574000001,-2.7057548850689663,False,2.801
mp-1213705,Cs4 Na2 Ga2 P4,12,Orthorhombic,72,364.7087301229971,3.82885733991582,30.392394176916426,4.13969858,-3.260844458333333,-0.424724626245894,False,1.482
mp-996943,Cs2 Na1 In1 Br6,10,Cubic,225,366.1844609507666,4.004339376709322,36.61844609507666,-0.306342,-3.290426344,-1.716573456735632,True,1.8935
mp-989571,Cs2 Na1 In1 Cl6,10,Cubic,225,311.0091677611149,3.290742620853292,31.10091677611149,-0.31367721,-3.7146118649999993,-2.013801218735632,True,2.9903999999999993
mp-989610,Cs2 Na1 In1 H6,10,Cubic,225,173.60215986430234,3.918539479411219,17.360215986430234,1.14026576,-2.817228802999999,-0.18844397348563102,False,1.255799999999999
mp-1111979,Cs2 Na1 Rh1 F6,10,Cubic,225,175.87619707692917,4.774545738899108,17.587619707692916,0.67669327,-4.82069209,-2.620182286068965,True,1.9082000000000001
mp-1112141,Cs2 Na1 Sc1 I6,10,Cubic,225,434.82083950881565,4.182400345120723,43.48208395088157,0.97416667,-3.471994257000003,-1.608572185568968,False,2.2294
mp-1112527,Cs2 Na1 Tl1 Cl6,10,Cubic,225,322.0087319880363,3.640205022554829,32.20087319880363,-0.61141004,-3.496559336,-1.8345188524023,True,1.9178000000000002
mp-23108,Cs2 Na1 U1 Cl6,10,Cubic,225,340.1955329443626,3.609828861317796,34.01955329443626,3.67135496,-4.795468266999999,-2.241433994068965,False,0.5004000000000001
mp-1201406,Cs4 Nb6 Cl14 O10,34,Monoclinic,15,860.9527882600385,3.366384811887276,25.322140831177602,-0.65525333,-6.5770219302941175,-2.47117046643002,True,2.3094
mp-569465,Cs2 Nb6 Pb1 Cl18,27,Trigonal,148,728.2296593221475,3.804817254946941,26.971468863783244,2.4525006400000002,-5.4779514570370385,-1.796092092196679,False,1.0644
mp-623028,Cs4 Nb2 Ag2 S8,16,Orthorhombic,70,547.8138817124009,3.606203484120718,34.238367607025054,0.78518747,-5.204158778125,-1.289954261997126,False,2.2195
mp-14637,Cs4 Nb2 Ag2 Se8,16,Orthorhombic,70,600.6198226621648,4.326357650983168,37.5387389163853,0.69667409,-4.786953308749999,-1.193972837544,False,1.8213
mp-15223,Cs4 Nb2 Cu2 Se8,16,Orthorhombic,70,568.608805807312,4.31104592618986,35.538050362957,1.29466098,-4.968654821249999,-1.218640726085667,False,1.635099999999999
mp-8995,Cs2 Nb1 F6,9,Trigonal,164,173.19296176805963,4.532225789668382,19.243662418673292,2.34789504,-13.603378148888888,-3.191472776666665,False,0.24779999999999902
mp-557503,Cs4 Ni2 N8 O24,38,Triclinic,2,644.934879115812,2.948199390690797,16.971970503047686,-0.58425138,-6.481493062105263,-1.20124385891107,False,2.9547
mp-28486,Cs4 Ni6 S8,18,Hexagonal,194,450.8532591590667,4.199850671994293,25.047403286614816,3.47529785,-4.9316231550000005,-0.9638672160344821,False,0.9065999999999991
mp-14336,Cs2 Ni3 Se4,9,Orthorhombic,69,242.05498992502328,5.198166334962072,26.89499888055814,3.1075746,-16.708383490000003,-0.7741281118055571,False,0.6160000000000001
mp-1206689,Cs4 Ni2 As4,10,Orthorhombic,63,324.6875594984761,4.851880142379085,32.46875594984761,3.22708766,-3.782735843999998,-0.39546846686206705,False,0.5567000000000001
mp-689925,Cs2 Ni1 F6,9,Cubic,225,173.84570121701753,4.188413132692228,19.316189024113058,-2.75247154,-11.461283275555555,-2.466306513333333,False,2.4357
mp-755100,Cs2 Ni1 O2,5,Tetragonal,139,131.73873088519676,4.493646836023798,26.34774617703935,0.95445764,-4.743848402999999,-1.245445636862069,False,2.6343
mp-573103,Cs8 Np4 S8 O40,60,Monoclinic,14,1142.6962898947484,4.22545804098549,19.044938164912473,1.42779279,-7.317131868666666,-2.48246093487069,True,0.213099999999999
mp-647426,Cs2 Np1 Br6,9,Cubic,225,348.91437613580405,4.674612288555177,38.768264015089336,0.9583052,-4.699274634444448,-1.967561964228931,False,0.091099999999999
mp-1025274,Cs2 Np1 O4,7,Tetragonal,139,142.12846086331908,6.622232156204992,20.30406583761701,3.68503303,-7.780214509999999,-2.843703246865764,False,0.2765
mp-7988,Cs2 O1,3,Trigonal,166,102.22237851217304,4.577833402444146,34.07412617072435,1.61294492,-3.434885260000001,-1.180246544770117,False,0.583199999999999
mp-7896,Cs2 O2,4,Orthorhombic,71,105.42063966239483,4.690966106411125,26.35515991559871,2.45455361,-4.152192639999999,-1.224223352327586,False,1.6496
mp-1205610,Cs4 P4 Pd2,10,Orthorhombic,63,322.95308103275084,4.464860585514918,32.29530810327508,2.86803866,-4.073393462000001,-0.508036661719212,False,1.0311
mp-14652,Cs4 P6,10,Orthorhombic,69,362.4983360077176,3.28657406911343,36.249833600771765,2.84866698,-16.030519819,-0.585892831785713,True,0.8470999999999991
mp-1199678,Cs4 P8 Pd6 O28,46,Orthorhombic,36,831.3542112571885,3.7269612429114822,18.072917636025835,2.08226238,-6.89598581,-2.187770647299206,True,1.3628
mp-1196015,Cs8 P4 Au4 S16,32,Orthorhombic,57,1067.0670288470928,3.871824083499116,33.34584465147165,1.11485646,-4.4213481153125,-1.03900449830665,True,2.1538
mp-569060,Cs4 P2 Se10,16,Triclinic,2,587.2851444356495,3.910888488507438,36.705321527228094,0.78112688,-17.12433855,-0.777240616661085,False,1.4824
mp-2647097,Cs4 Pb2 I4 Cl4,14,Tetragonal,139,648.2370343292783,4.086946156777206,46.302645309234165,0.38097429,-3.4627185885714282,-1.709331011330049,True,2.9646
mp-1213706,Cs4 Pb4 O6,14,Cubic,199,379.9772810678984,6.364694552870376,27.14123436199274,2.21409417,-4.963991462857142,-1.523258277758619,True,2.0761
mp-23425,Cs2 Pb1 Cl6,9,Cubic,225,293.46134697481983,3.880169043026973,32.60681633053554,-0.80056854,-3.588719168888886,-1.742068167701147,True,1.4541
mp-989549,Cs2 Pb1 Cl1 F6,10,Cubic,225,246.22253697081163,4.197868047465062,24.622253697081163,-1.00929158,-4.153189575,-2.267163648931034,False,0.098999999999999
mp-562263,Cs8 Pb4 O8,20,Triclinic,2,578.1337732483663,5.802036697909616,28.906688662418315,2.15524676,-4.566295695999997,-1.481390851862066,True,1.8593000000000002
mp-21283,Cs4 Pb2 O6,12,Orthorhombic,63,272.480112897268,6.350232035028116,22.706676074772332,1.85936268,-4.9323497958333355,-1.536935591551725,True,1.3724
mp-543024,Cs2 Pd1 I2 Br4,9,Tetragonal,139,345.5007373994693,4.544993113496317,38.38897082216326,0.72239961,-3.115345201111111,-1.271828721034483,False,0.723599999999999
mp-607298,Cs2 Pd1 I2 Cl4,9,Tetragonal,139,318.67172246717365,4.001133122572818,35.407969163019295,0.8450122,-3.375259207777778,-1.437699943256705,False,0.9218000000000001
mp-510268,Cs2 Pd3 S4,9,Orthorhombic,69,244.1797066782508,4.850992120871818,27.131078519805644,2.14968105,-17.688174718888888,-0.8839232568055561,False,1.3815
mp-11694,Cs2 Pd3 Se4,9,Orthorhombic,69,266.7116461164497,5.60904547314984,29.634627346272186,1.81976911,-20.457282626666668,-0.8634484318055541,False,0.986699999999999
mp-1205847,Cs2 Pd1 Br6,9,Cubic,225,311.1163006538911,4.545587087687292,34.568477850432345,-0.5399887800000001,-3.235568791111108,-1.366955884367812,False,0.756
mp-1078085,Cs2 Pd1 Cl4,7,Tetragonal,123,263.53198227235606,3.239031241324765,37.64742603890801,-0.99600643,-15.541671902857143,-1.572084017142858,True,1.839
mp-1206568,Cs2 Pd1 Cl6,9,Cubic,225,274.4707014385098,3.5389223754447032,30.49674460427887,-0.85337778,-13.601160423333333,-1.368716757222222,False,1.3617
mp-504729,Cs2 Pd1 F6,9,Cubic,225,179.395880059739,4.500602252329181,19.93287556219322,-2.23705237,-12.539973686666666,-2.32513731888889,False,2.306499999999999
mp-31285,Cs8 Pd4 Se32,44,Tetragonal,142,1524.9869794973233,4.372583628733966,34.65879498857553,1.09551956,-17.646942109772727,-0.5860474318181801,True,1.1887
mp-1213749,Cs2 Pr10 Co2 I17,31,Monoclinic,12,1300.8747996602985,5.042256815070115,41.96370321484834,3.80092551,-4.339069219354839,-1.437594457450871,False,0.052999999999999006
mp-1213729,Cs2 Pr10 Ru2 I17,31,Monoclinic,12,1345.2316346752796,4.980022973846908,43.39456886049289,3.7043081,-4.502623870645161,-1.4630209913218382,True,0.0013000000000000002
mp-13548,Cs4 Pt2,6,Hexagonal,194,230.63964162854523,6.636621423383506,38.439940271424206,1.8975956900000002,-33.96522354666667,-0.06368258,False,1.6743000000000001
mp-13992,Cs2 Pt3 S4,9,Orthorhombic,69,246.6119646452656,6.594181036249544,27.40132940502951,2.895844089999999,-27.195158242222224,-0.8818190168055551,False,1.6386
mp-14338,Cs2 Pt3 Se4,9,Orthorhombic,69,270.23507042637664,7.170378943160853,30.02611893626407,2.44333494,-29.941713435555553,-0.838791477361111,False,1.3326
mp-30062,Cs2 Pt1 Br6,9,Cubic,225,316.29440799930995,4.9366546968032194,35.143823111034436,-0.436494899999999,-3.3772761755555543,-1.409635323256703,False,1.4417
mp-505825,Cs2 Pt1 C2,5,Trigonal,164,146.7267939246976,5.487903367563707,29.34535878493952,2.20073198,-5.322089306,-0.053205416862070004,False,1.2698
mp-23406,Cs2 Pt1 Cl6,9,Cubic,225,276.2738925538895,4.048737765938499,30.697099172654386,-0.5846307,-16.835094882222222,-1.432955294999999,True,2.1146
mp-8191,Cs2 Pt1 F6,9,Trigonal,164,167.21660062273313,5.708880183554448,18.579622291414793,-0.82992969,-15.743344983333335,-2.358812694444446,False,2.6933
mp-23060,Cs2 Pt1 I6,9,Cubic,225,385.92889445208635,5.2592925886137465,42.88098827245404,1.52030278,-2.962920504444443,-1.070568932145593,False,0.655099999999999
mp-571448,Cs2 Pu1 Cl6,9,Trigonal,164,296.01704326809534,4.053102680378289,32.89078258534393,0.9875709300000001,-21.481506231111112,-2.205074282638886,False,0.365
mp-1112134,Cs2 Rb1 As1 Br6,10,Cubic,225,420.9019992314764,3.572861471003119,42.09019992314764,-0.82645833,-3.29941497,-1.5705858744310341,True,2.8942
mp-1206535,Cs2 Rb1 Cu1 F6,10,Cubic,225,199.0430438598684,4.411699870147699,19.90430438598684,-0.84835366,-4.392687239,-2.554806225681035,False,0.8744000000000001
mp-1112117,Cs2 Rb1 Sc1 I6,10,Cubic,225,521.6399829772732,3.685189216268148,52.163998297727325,0.24122835,-3.461180559,-1.633877158181035,False,2.3929
mp-1202505,Cs8 Re4 Cl12 O12,36,Orthorhombic,62,1000.6549417954687,4.025002053422486,27.795970605429687,-0.68162615,-5.919689428888889,-2.069291566312261,False,2.3472
mp-651741,Cs12 Re12 Se30,54,Trigonal,167,1856.7502867778783,5.543162874661183,34.384264569960706,2.4008591900000003,-5.8708495011111115,-0.960656062892123,False,0.7173
mp-1214500,Cs16 Re24 Se32 I24,96,Monoclinic,14,3571.559385423091,5.657261180867791,37.203743598157196,1.60587024,-5.856565067187501,-1.046899940619614,True,2.0776
mp-567942,Cs2 Re1 Cl6,9,Cubic,225,276.79745129809714,3.987825509429275,30.755272366455237,0.46930797,-17.06330373,-1.558619941944445,True,1.2397
mp-1205774,Cs2 Re1 F6,9,Trigonal,164,169.08808694656676,5.558516565742805,18.787565216285195,1.1229655,-16.226643107777775,-2.739566618055556,False,1.8006000000000002
mp-17546,Cs8 Ru4 O16,28,Orthorhombic,62,632.9015013828981,4.5219711879633735,22.60362504938922,1.5785664,-6.138521637857143,-1.7267785377586211,True,0.585599999999999
mp-540703,Cs8 S4,12,Orthorhombic,62,491.3935080242464,4.026382662216831,40.94945900202053,1.43487357,-20.609419424166667,-1.192117730104165,True,2.0952
mp-1079600,Cs4 S6,10,Orthorhombic,36,351.8730811412738,3.416714592943785,35.18730811412738,1.84171097,-15.833502490999999,-0.969121841687498,False,1.3635
mp-1193140,Cs8 S20,28,Orthorhombic,19,929.2044401895766,3.046112503708791,33.18587286391345,1.27235871,-13.6561229875,-0.7429942145089291,False,1.8661999999999992
mp-1191118,Cs16 Sb8,24,Orthorhombic,62,1187.825884244079,4.334484610070179,49.49274517683662,2.84879161,-25.868267950416666,-0.5605273737500001,False,0.28390000000000004
mp-1078965,Cs4 Sb4 Pd2,10,Orthorhombic,63,401.4017314333512,5.094539215877452,40.14017314333512,2.66721366,-25.531778373,-0.613780159,False,0.8965999999999991
mp-1080614,Cs4 Sb4 Pt2,10,Orthorhombic,63,403.1279884198894,5.803161777181482,40.312798841988936,2.9055638,-31.238055204,-0.6146043319999991,False,0.740699999999999
mp-27146,Cs8 Sb16 S28,52,Monoclinic,14,1663.5277047087327,3.9022004350997372,31.99091739824486,2.37709804,-16.7575646825,-0.658552182860577,True,1.641
mp-1226852,Cs4 Sb16 S26,46,Triclinic,2,1423.4820114961099,3.865274965304719,30.945261119480648,2.8090984,-16.173035355869565,-0.5068431859375,False,1.6640000000000001