material_id,composition,nsites,crystal_system,space_group,volume,density,density_atomic,efermi,energy_per_atom,formation_energy_per_atom,is_gap_direct,band_gap
mp-1298662,Sr12 Zn4 Co4 O24,44,Monoclinic,5,597.3323558774631,5.373023148863743,13.575735360851434,2.07320566,-6.312580742727272,-2.389107049090908,False,1.2648000000000001
mp-759747,Sr12 Ni9 O27,48,Trigonal,150,617.8633553945658,5.406449979470377,12.872153237386788,2.92505009,-6.370364525625,-2.0802538103125,False,1.3317
mp-554152,Sr16 Al24 Cr4 O64,108,Orthorhombic,33,1736.9829295761483,3.137008931143453,16.083175273853225,1.7237479800000002,-7.623968710370371,-3.251243121851852,False,2.254099999999999
mp-9392,Sr4 Al6 Te1 O12,23,Cubic,217,424.5930568597537,3.253716548304334,18.46056768955451,1.8677129,-7.341150237391304,-3.351497833333332,False,2.838
mp-8299,Sr4 As2 O1,7,Tetragonal,139,192.89810551874788,4.4446981268313,27.556872216963985,2.53445874,-4.709829844285715,-1.701555782857144,False,1.192399999999999
mp-29424,Sr32 As24,56,Orthorhombic,55,1731.8365228506282,4.412501760552795,30.925652193761216,2.72132361,-16.285861979107143,-1.327970944464285,False,0.8578000000000001
mp-567601,Sr16 C4 N16,36,Orthorhombic,62,677.3710257433166,4.103893626351333,18.81586182620324,2.81763472,-6.326724352500001,-0.843225593333335,False,1.2186
mp-766217,Sr8 Cu4 O14,26,Monoclinic,14,360.86229268752993,5.42589449852623,13.879318949520382,2.33789451,-6.156802914230767,-2.341121934615382,False,0.7570999999999991
mp-1218333,Sr4 Fe1 Mo1 O8,14,Orthorhombic,65,202.87774975850004,5.15863215886877,14.49126783989286,3.32217237,-7.396320703571429,-2.7056727235714293,False,0.720599999999999
mp-1201546,Sr32 Ge8 As32,72,Cubic,218,2124.0249562126223,4.520655979216684,29.5003466140642,2.62143097,-15.976166824444444,-1.166750623333333,True,0.8140000000000001
mp-14213,Sr32 Ge8 P32,72,Cubic,218,1971.5788067963533,3.685735935447788,27.383038983282685,3.05561738,-13.392146875416666,-1.118488307850528,True,1.044699999999999
mp-9723,Sr4 Li1 B3 N6,14,Cubic,229,210.3570270279483,3.740877324866368,15.025501930567737,2.35822983,-6.876735227857142,-1.251986870059524,False,2.0686
mp-1218681,Sr12 Mn6 Cu3 O27,48,Triclinic,1,624.2904272522144,5.329579781061246,13.006050567754466,3.01883438,-7.103882157708334,-2.496094741512214,False,0.6674000000000001
mp-558114,Sr16 Nb4 Al4 O32,56,Monoclinic,14,845.73609271804,4.699363515418359,15.102430227107858,2.79326145,-7.5962487648214285,-3.296228674107142,False,2.961999999999999
mp-8298,Sr4 P2 O1,7,Tetragonal,139,185.36289596519038,3.8379830050716723,26.48041370931291,2.6742856,-4.855025417142857,-1.633793929183673,False,1.2134
mp-29775,Sr8 Pd2 O12,22,Trigonal,167,326.3988833354515,5.625669197151822,14.83631287888416,2.36676282,-6.36669934681818,-2.581484783181816,True,1.4647000000000001
mp-755293,Sr4 Sb2 O1,7,Tetragonal,139,215.4009946835376,4.702521619228042,30.771570669076798,3.4263668800000002,-4.578430149999998,-1.7247621721428552,False,0.7118000000000001
mp-1196120,Sr32 Si8 As32,72,Cubic,218,2086.6482849537792,4.31798223041934,28.9812261799136,2.92714578,-15.449700212361112,-1.206752120694444,True,1.149499999999999
mp-1208796,Sr32 Si8 P32,72,Cubic,218,1934.4336132566696,3.450541238164634,26.867133517453745,3.07403012,-12.89325838625,-1.186067928128306,True,1.3242999999999991
mp-15501,Sr32 Ti8 As32,72,Cubic,218,2160.503305674021,4.2920063207402,30.00699035658362,2.22059642,-16.03998848597222,-1.334374570046296,True,1.3516
mp-1029799,Sr8 Ti2 N8,18,Triclinic,2,332.657429718562,4.5362308389013215,18.48096831769789,3.94850537,-13.369285555555557,-1.143129557962963,False,1.0129
mp-15500,Sr32 Ti8 P32,72,Cubic,218,2014.5608045968133,3.443741468399118,27.98001117495574,2.55161327,-13.469223775416667,-1.299367493035714,True,1.4294
mp-1029580,Sr8 Zr2 N8,18,Triclinic,2,358.04627880463516,4.616729663044729,19.89145993359084,2.47132574,-14.45446263388889,-1.138080537222224,False,0.8613000000000001
mp-28392,Sr20 Al8 Sb24,52,Orthorhombic,62,1720.6420801570066,4.719664610857484,33.089270772250124,4.23045819,-4.021713052692307,-0.8888438565384601,False,0.7905999999999991
mp-1195596,Sr20 Co8 N16,44,Tetragonal,130,948.158152338801,4.287211360178353,21.54904891679093,2.83115387,-5.750414626590909,-0.652043274772727,False,0.20750000000000002
mp-571046,Sr10 Ge4 N12,26,Monoclinic,15,456.5382501587851,4.85513455029244,17.559163467645583,2.88041216,-6.004384457692307,-0.79377964,False,1.3525
mp-1195789,Sr30 I12 O72,114,Trigonal,167,1715.1321152095993,5.134601669305274,15.04501855447017,4.68270547,-6.079643827105264,-2.348817630263159,False,2.3981
mp-649033,Sr10 In4 Sb12,26,Orthorhombic,55,898.5212852981413,5.168325275455368,34.55851097300543,4.35327108,-3.869326360384616,-0.8882113314102561,False,0.05330000000000001
mp-1197996,Sr10 Sb44 O76,130,Monoclinic,14,2421.758300331609,5.108000468019755,18.62891000255084,3.30527694,-6.464547534230769,-2.044198520076922,False,2.5443
mp-1029868,Sr10 Si4 N12,26,Monoclinic,15,433.5365480001954,4.430114806615534,16.67448261539213,3.74430117,-12.593065992692308,-1.2047322567307701,False,1.405999999999999
mp-1194401,Sr10 Sn4 As12,26,Orthorhombic,55,762.6036820926538,4.8995011603831315,29.330910849717455,3.490296449999999,-17.488150322692306,-1.0676996430769221,False,0.07020000000000001
mp-24338,Sr10 As6 H2,18,Hexagonal,193,496.421587391559,4.441332319221898,27.578977077308835,3.27276349,-14.937461994444444,-1.236794137361111,False,0.676399999999999
mp-2751389,Sr10 As6 O26,42,Hexagonal,176,653.6713502893114,4.424523330514773,15.563603578316938,1.98139825,-6.8033991302380965,-2.670256220119049,True,1.5598
mp-1179227,Sr10 Cr6 Cl2 O24,42,Hexagonal,173,675.6921902751047,4.037902131260827,16.0879092922644,3.07635136,-7.388371746428571,-2.690973759761904,False,1.1425
mp-18859,Sr10 Cr6 O24 F2,42,Hexagonal,176,635.2545428295176,4.208914306469722,15.125108162607562,1.76890838,-7.486115675,-2.785607708571428,False,1.0321
mp-1218639,Sr5 Mn4 C1 O13,23,Monoclinic,6,306.62922543220805,4.753991251481509,13.331705453574262,2.7409391100000002,-7.7586168430434785,-2.599383791922789,False,0.6452
mp-31231,Sr10 Mo4 N14,28,Triclinic,2,501.39903286600133,4.822175671442805,17.907108316642905,3.64811977,-7.409044341428571,-1.086088278214286,True,1.2258
mp-761057,Sr10 Nb8 O30,48,Trigonal,165,650.5044781132135,5.359210732480254,13.552176627358614,1.81847153,-8.427147768124998,-3.298532114583332,False,2.8004000000000002
mp-10577,Sr20 Nb4 N20,44,Orthorhombic,57,861.1892982753478,4.635683250236905,19.57248405171245,2.88643266,-6.519678418863637,-1.0419662175,True,1.2468
mp-1208610,Sr10 P6 O26,42,Hexagonal,176,604.7809293314407,4.058199274252333,14.399545936462873,1.5799664,-7.485205321428571,-3.245583698044218,False,0.40680000000000005
mp-1218652,Sr10 V6 O26,42,Hexagonal,173,655.339415395679,4.048687932216505,15.603319414182833,0.72858691,-7.727517328809524,-2.963833913333334,True,0.5547000000000001
mp-29136,Sr12 Cu6 N10,28,Tetragonal,105,548.1884947613943,4.764178087905891,19.578160527192654,3.38766002,-12.694810850357143,-0.6192317234821441,False,0.4772
mp-16061,Sr24 Sb24 S68,116,Orthorhombic,19,3058.141466465428,3.912533411928158,26.36328850401231,3.50399121,-4.966740589482757,-1.336372016120688,True,1.8482
mp-568436,Sr28 Ge4 N24,56,Orthorhombic,60,1078.5968279332121,4.74189647533553,19.2606576416645,2.90087128,-5.488652852142857,-0.738674926785714,False,1.133499999999999
mp-676818,Sr24 Ti21 S63,108,Trigonal,143,2460.9618378387295,3.46025136217206,22.78668368369194,4.10353826,-6.301307073333333,-1.975934302384257,False,0.044300000000000006
mp-1197208,Sr18 Mn10 Co4 O42,74,Trigonal,167,993.5388030506507,5.071253760898381,13.426200041225009,2.54511747,-7.373712428243243,-2.530038271071761,True,1.790399999999999
mp-555609,Sr9 Zn4 Cu2 O14,29,Monoclinic,12,461.6150546251065,5.040807717375507,15.917760504314018,2.07688777,-5.862463462413793,-2.492094681034483,True,1.7851
mp-10667,Sr2 Ag2 P2,6,Hexagonal,194,140.07673041247585,5.369184930181552,23.34612173541264,4.27974441,-16.033280816666664,-0.86540930765873,True,0.112599999999999
mp-1080438,Sr2 Ag2 Te2 F2,8,Tetragonal,129,188.27367349055643,6.034281461051804,23.534209186319554,3.770317829999999,-4.55828642375,-2.160155414583333,True,1.284699999999999
mp-980057,Sr1 Al1 Ge1 H1,4,Trigonal,156,78.27935264356545,3.993334167002414,19.56983816089136,4.09667939,-3.9092531925,-0.5452036390625,False,0.723399999999999
mp-570485,Sr1 Al1 Si1 H1,4,Trigonal,156,76.91066305597447,3.102445306782665,19.227665763993617,4.434959819999999,-4.0232626175,-0.4586405203125,False,0.625699999999999
mp-556244,Xe4 N2 O4 F26,36,Monoclinic,12,585.4154701810643,3.151768163562187,16.261540838362897,-4.33166444,-3.238509536388889,-0.8392523713888891,False,2.8973
mp-22885,Xe1 F2,3,Tetragonal,139,63.94612513967291,4.396080864795752,21.315375046557637,-4.61689003,-2.069770396666668,-0.7818107566666681,False,2.686199999999999
mp-561153,Xe4 F12,16,Monoclinic,14,296.87070429752225,4.212742090005931,18.55441901859514,-4.34235979,-2.279555219375,-0.835122395625,False,2.6269
mp-23185,Xe2 F8,10,Monoclinic,14,163.65901264311847,4.206398571989196,16.365901264311848,-4.22302894,-2.395933059999999,-0.857616325999999,False,2.8624
mp-560366,Xe16 F96,112,Monoclinic,14,1925.7641174315104,3.384029819926771,17.194322477067058,-5.02362838,-2.439185264196429,-0.7935726327678571,False,2.793199999999999
mp-27782,Xe2 I2 F14,18,Tetragonal,87,308.66176717211914,4.209009277695123,17.14787595400662,-2.85182029,-3.249848990555556,-1.587943056111111,False,2.8051
mp-23568,Xe4 N8 O8 F32,52,Orthorhombic,62,728.949359941374,3.128066311890419,14.0182569219495,-3.04464343,-4.044384147115385,-0.819809480192308,True,2.2108
mp-1216184,Y2 Cu6 S6,14,Trigonal,148,244.0571509578096,5.112974865237336,17.432653639843544,5.35617365,-11.998529982142857,-1.004389095491072,False,1.4195
mp-1207692,Y2 Zn6 P6,14,Hexagonal,194,270.5037045183633,4.641516190955475,19.32169317988309,4.15078758,-11.310465045,-0.731659657704081,False,0.233299999999999
mp-1199133,Y22 Sn20,42,Tetragonal,139,1158.4229836529773,6.207014166001599,27.581499610785176,5.86991494,-6.070351277857131,-0.7515072278571291,False,0.014699999999999
mp-579614,Y32 B8 C16 I38,94,Triclinic,2,3214.0945324326176,4.105252751723612,34.19249502587891,3.12318291,-6.173527445425533,-1.202280749503546,False,0.23620000000000002
mp-680189,Y42 B14 C28 I36,120,Triclinic,2,3102.084190948241,4.70540759128399,25.850701591235342,4.01259368,-6.6752454650000015,-1.007242000652777,False,0.007
mp-1206803,Y2 C1 I2,5,Trigonal,164,144.1835613052793,5.109231347659422,28.83671226105586,3.55033907,-6.178445459999997,-1.119470715499997,False,0.49509999999999904
mp-35785,Y4 Cd2 S8,14,Cubic,227,356.4053395002699,3.8995312080374793,25.45752425001928,1.806428519999999,-6.297743020714286,-1.9360813835714281,True,1.1109
mp-27678,Y4 Cl6,10,Monoclinic,12,263.18960308422294,3.5858297091018763,26.318960308422295,3.723703839999999,-13.909505508999999,-2.092601786499999,False,0.760699999999999
mp-1362204,Y4 Cr6 O24,34,Orthorhombic,70,472.60696740624115,3.694822740886533,13.900204923712975,-0.33753289000000003,-8.334936176764707,-2.373003384411765,True,2.0049
mp-1216153,Y4 Cr2 Fe2 O12,20,Monoclinic,14,222.6686186073264,5.692256145480796,11.13343093036632,3.75948125,-9.097973602,-3.015071830999999,False,0.42689999999999906
mp-1216201,Y4 Cr2 Sb2 O14,22,Orthorhombic,74,264.3936445670876,5.8228742140465055,12.01789293486762,4.66606742,-8.610481737727254,-3.02539457909089,False,1.8940000000000001
mp-1216121,Y4 Fe2 Sb2 O14,22,Orthorhombic,74,276.72231481943265,5.609643132492815,12.57828703724694,4.47002849,-8.337354384545455,-2.859815067727272,True,1.8064
mp-676315,Y2 Ge1 I2,5,Trigonal,166,167.64802323863373,4.994657713779451,33.52960464772674,3.72909677,-5.5087916020000005,-1.3709443849999992,False,0.16710000000000003
mp-18831,Y4 Mn4 O14,22,Cubic,227,242.67026493050784,5.46989319572379,11.030466587750356,2.79988496,-8.86636365409091,-2.8683690523510963,False,0.8710999999999991
mp-1204562,Y4 Mo2 Se6 O24,36,Triclinic,2,471.98902361832535,4.94390917168351,13.11080621162015,1.97444872,-7.451288019444443,-2.244226930390623,False,2.9162
mp-2674749,Y4 Mo4 O14,22,Tetragonal,88,270.6051568007284,5.9116457431880995,12.30023440003311,3.90213051,-9.242018167727274,-2.9379081445454562,False,1.6484
mp-31124,Y8 Mo4 O24,36,Monoclinic,15,458.2914794656356,5.358870433873402,12.730318874045432,2.75093829,-9.103966612222221,-3.153788929999999,False,1.9796
mp-28580,Y4 N2 Cl6,12,Monoclinic,12,275.6589563111886,3.592375361954586,22.97157969259905,1.86578554,-13.771040301666666,-2.402162087708333,False,2.0584
mp-541289,Y12 S18,30,Monoclinic,11,717.4624790592753,3.8050672458027313,23.91541596864251,3.29730273,-15.328510091,-2.382070257687502,True,1.5992000000000002
mp-12894,Y2 S1 O2,5,Trigonal,164,82.11763538361161,4.891077478389802,16.423527076722323,3.24045416,-8.943769052,-3.5332761365,False,2.9983
mp-1105821,Y8 Se12,20,Orthorhombic,70,581.6218463778948,4.735804012405395,29.08109231889474,1.86692824,-18.9115222435,-2.1991457209375,False,1.315799999999999
mp-752658,Y2 Se1 O2,5,Trigonal,164,86.40533251899623,5.549596101909496,17.281066503799245,3.72558747,-8.723950134,-3.44194683646875,False,2.161299999999999
mp-3370,Y4 Sn4 O14,22,Cubic,227,281.5247988961786,6.219571875504394,12.796581768008117,4.18724165,-8.066727471363636,-3.005540767272727,True,2.750099999999999
mp-1189791,Y8 Te12,20,Orthorhombic,70,708.2528418770861,5.257544052069446,35.4126420938543,3.76758781,-6.158521497500001,-1.6689013615000001,True,0.559299999999999
mp-755756,Y2 Te1 O2,5,Tetragonal,139,95.89590196536308,5.842620020753437,19.179180393072617,5.01528475,-8.486515479999998,-3.275033299333331,False,0.7401
mp-1216058,Y2 Te1 S2,5,Orthorhombic,71,151.22860299666831,4.057687616153514,30.245720599333662,2.37637315,-7.019711188,-2.132069582333332,False,1.865199999999999
mp-25305,Y2 Ti2 S2 O5,11,Tetragonal,139,166.36412250204617,4.168938740946212,15.124011136549653,3.65687943,-8.908637589090908,-3.288120207878788,True,0.7881
mp-556781,Y6 Cu2 Ge2 S14,24,Hexagonal,173,493.6861784268267,4.220306042839463,20.57025743445111,4.38502582,-6.4796491170833335,-1.7114802839583332,True,1.7881
mp-561173,Y6 Cu2 Si2 S14,24,Hexagonal,173,486.9777990190118,3.974591429618406,20.29074162579216,4.67555977,-6.635586675833333,-1.8005603281249982,False,1.7371999999999992
mp-568638,Y6 Cu2 Si2 Se14,24,Hexagonal,173,561.2577602565459,5.390983811800236,23.385740010689414,3.95541611,-6.03694494625,-1.576679984283854,False,1.5105
mp-1208208,Y12 Ga12 Fe8 O48,80,Cubic,230,971.3195670246331,5.33091437564395,12.141494587807914,2.81424778,-8.060763313875,-2.8144064615,True,2.6298
mp-1189598,Y6 Ga2 S12,20,Orthorhombic,36,457.90588379842717,3.835477197201199,22.89529418992136,3.09648468,-6.757731726000001,-2.019178933250001,False,2.0555
mp-1207946,Y12 In8 Ga12 O48,80,Cubic,230,1031.7496787359275,5.777987945192756,12.896870984199094,3.22063309,-7.543198889875001,-2.867926784166667,True,2.719099999999999
mp-981511,Y6 Sb2 O14,22,Orthorhombic,63,290.4126576988975,5.723273606957043,13.200575349949885,3.4072269,-8.69063146909091,-3.391358489545456,False,2.8091
mp-1207796,Y12 Si20 N36 O4,72,Orthorhombic,57,856.4255483017182,4.259452300299653,11.894799281968309,5.34689642,-8.775539209305556,-1.739632244861111,False,2.5775
mp-1193658,Y12 Te12 N4,28,Monoclinic,14,798.9634706301512,5.51618680584962,28.534409665362542,4.24476066,-7.049885610714284,-1.721961335714283,True,1.124399999999999
mp-1192654,Y6 V2 H6 O16,30,Monoclinic,11,338.10484304720194,4.407197819746553,11.270161434906731,5.01590421,-8.125752722333333,-2.900394860583333,False,2.3493
mp-1200885,Y16 C28,44,Monoclinic,14,635.8327029033887,4.59325983915959,14.45074324780429,4.2315865,-8.5039397225,-0.264210227272727,True,0.585
mp-1207794,Y16 Cd4 Ni4,24,Cubic,216,621.010211589531,5.633737243228394,25.875425482897125,3.526463279999999,-5.7260039399999965,-0.263251794999995,False,0.013399999999999001
mp-1207825,Y16 Mg4 Ni4,24,Cubic,216,641.3185082400233,4.542819987286667,26.721604510000972,3.56324487,-5.743841139583335,-0.16934569041666803,True,0.030100000000000002
mp-1196369,Y32 Ru8 Br40,80,Tetragonal,134,2387.0526399447817,4.76495834655511,29.83815799930977,3.63115568,-6.01739137525,-1.667841253749999,False,0.22080000000000002
mp-28840,Y32 Ru8 I40,80,Tetragonal,134,2838.5255204401224,5.106894744940003,35.48156900550153,4.62067628,-5.5677818935,-1.274698732000001,False,0.125199999999999
mp-1029349,Y4 Se3 N2,9,Monoclinic,12,206.5283754152776,4.989108086526872,22.947597268364177,2.72675774,-17.95631263,-2.128914199409722,False,1.3943
mp-1194159,Y8 Zn10 Ge12,30,Orthorhombic,36,609.7207408198556,6.092385481336328,20.324024693995185,4.76128002,-4.557073731,-0.552190318999999,False,0.0297
mp-29426,Y20 C8 I36,64,Monoclinic,14,2329.349883780995,4.5928954668070805,36.39609193407804,2.8292913200000003,-5.47080607453125,-1.42587469828125,True,0.6686999999999991
mp-1205373,Y6 Co1 Br10,17,Triclinic,2,530.7854476839148,4.35296001712297,31.222673393171455,2.7577416,-5.554623085294118,-1.874774198823528,False,0.0956
mp-1106074,Y6 Co1 I10,17,Triclinic,2,636.4191495899994,4.856781885437756,37.43642056411761,3.79558586,-5.027161603529411,-1.413744434705881,False,0.1337
mp-1216090,Y6 Mn1 Si2 S14,23,Trigonal,143,477.9763306796239,3.798772467930503,20.781579594766256,5.07678533,-13.462981043478262,-1.871569879298162,False,0.9344000000000001
mp-1188648,Y6 Ni1 Br10,17,Triclinic,2,532.0786140235155,4.341632197927854,31.29874200138326,3.01036477,-5.4886601335294,-1.8884159552941062,False,0.48240000000000005
mp-1188535,Y6 Ni1 I10,17,Triclinic,2,638.3479569180964,4.841483041991578,37.54987981871155,3.8536877,-4.9617618635294125,-1.4279494029411761,False,0.49369999999999903
mp-1207685,Y6 Rh1 I10,17,Triclinic,2,648.7981882650637,4.876657772482459,38.16459930970963,4.04640345,-5.090541871176473,-1.4635428700000022,False,0.0877
mp-754359,Y6 Te1 O12,19,Trigonal,148,257.52133441865516,5.500461373607832,13.553754443087113,2.61934944,-8.877679003157894,-3.531711268771929,False,2.725399999999999
mp-619775,Y14 C4 I24 N2,44,Triclinic,2,1605.8724074083425,4.515086691953715,36.49710016837142,2.61867602,-5.657140282954546,-1.536803891590909,False,1.056
mp-1192970,Y16 In6 Co2,24,Hexagonal,186,661.19879944487,5.5985984705716465,27.549949976869584,4.52918363,-5.958711875833333,-0.33507271333333205,True,0.010799999999999001
mp-1216384,Y18 Al10 S42,70,Trigonal,146,1471.4843512761543,3.630148177171833,21.021205018230773,3.99228179,-12.990903721714286,-1.984678549830357,False,2.4371
mp-1195810,Y4 Ag4 I16 O48,72,Monoclinic,9,1138.5989317723295,5.229170066238302,15.813874052393466,5.7603562,-5.422856695277778,-1.265989378703703,False,2.3928000000000003
mp-561467,Y2 Ag6 P4 S16,28,Monoclinic,15,637.3274169680782,3.809086037520696,22.76169346314565,2.88637391,-5.038542623214285,-0.8259906142346921,False,2.004099999999999
mp-30250,Y2 Ag2 O4,8,Hexagonal,194,131.84034243067953,5.7628226352971215,16.48004280383494,1.18122745,-7.412516732499998,-2.600528935416664,False,2.4154
mp-2757874,Y8 Ag8 S16,32,Tetragonal,92,728.3673383860124,4.758493082561096,22.761479324562888,6.22335582,-15.9798156578125,-1.54494659046875,False,2.1092
mp-1188559,Y4 Ag4 Se8,16,Orthorhombic,19,398.5932825030978,5.910619697520829,24.91208015644361,2.7696267800000003,-18.99806444875,-1.42491480703125,True,1.279799999999999
mp-12903,Y2 Ag2 Te4,8,Tetragonal,113,239.4775513116601,6.267982639739634,29.934693913957513,4.25036392,-5.035546182499999,-1.125885941249998,False,0.8975000000000001
mp-1102959,Y4 As4 S4,12,Orthorhombic,62,252.15786634601656,5.160054227784765,21.013155528834712,5.30150456,-6.808207311666667,-1.702349445,True,0.0251
mp-2029557,Y4 As4 S4,12,Orthorhombic,62,250.66108801537223,5.190866578494039,20.88842400128102,5.57107709,-16.137207988333333,-1.785164311770835,False,0.5225000000000001
mp-1095603,Y4 As4 Se4,12,Orthorhombic,62,269.7066624042976,5.979207810607944,22.475555200358134,4.47396016,-18.10489430666667,-1.660663580520835,False,0.06230000000000001