material_id,composition,nsites,crystal_system,space_group,volume,density,density_atomic,efermi,energy_per_atom,formation_energy_per_atom,is_gap_direct,band_gap
mp-2014966,Al1 V4 S8,13,Orthorhombic,44,232.08557018377866,3.486329559785257,17.852736167982975,5.16621178,-10.97363976923077,-1.175917160961538,False,0.3003
mp-1029975,Al4 C6 N12,22,Trigonal,167,240.7275794232613,2.4009923873570242,10.942162701057331,5.73709207,-8.35602053681818,-0.609946481590908,True,2.9441
mp-29110,Al4 Fe6 Si6,16,Triclinic,2,190.841101477089,5.320839340191279,11.927568842318063,9.09681434,-6.601094414375,-0.45394824187499905,True,0.230299999999999
mp-557737,Al8 Bi4 S16,28,Tetragonal,126,690.1283418024673,3.765146959092993,24.647440778659547,2.7226889400000003,-15.898629608571428,-1.026277218035714,False,2.6364
mp-571623,Al8 Bi4 Se16,28,Tetragonal,126,781.9364198332319,4.9164742841785944,27.92630070832971,2.09197666,-19.33162159,-0.8726628287500011,False,2.2404
mp-1214967,Al8 Cd12 Ge12 O48,80,Cubic,230,919.5628085998216,5.786543669447486,11.49453510749777,2.26339282,-6.452677418625001,-2.271887525875,True,2.9874
mp-1214910,Al4 Cd2 Br16,22,Monoclinic,7,730.1741100314017,3.6641681623673152,33.18973227415462,1.585687699999999,-3.408296035909091,-1.4495020240909091,False,2.9128
mp-5928,Al2 Cd1 S4,7,Tetragonal,82,158.91384085527508,3.078721103895588,22.701977265039297,1.91604263,-10.533709221428571,-1.146683410178572,False,2.7262999999999993
mp-3159,Al2 Cd1 Se4,7,Tetragonal,82,182.21741497767087,4.394395089806269,26.03105928252441,1.50165954,-4.280460935714286,-1.075488398482142,True,2.004699999999999
mp-7909,Al2 Cd1 Te4,7,Tetragonal,82,231.64033150563444,4.851529037055572,33.09147592937635,3.050266,-19.901839472857144,-0.582113531428575,True,1.6245
mp-1228975,Al2 Cr3 Cu1 S8,14,Trigonal,160,248.05609191194992,3.548046548801847,17.718292279424993,5.20893635,-6.369691330714287,-1.1085215249999991,False,0.13570000000000002
mp-1214864,Al4 Ga4 Bi4 O18,30,Orthorhombic,55,386.0622675408919,6.497978846273172,12.868742251363065,6.19836264,-6.859021493,-2.468417401666667,True,2.7318
mp-27346,Al8 Hg12 Cl32,52,Monoclinic,14,1540.3987770841748,4.050481336087311,29.623053405464898,-1.20690795,-17.478283774230768,-1.26388935826923,False,2.5631
mp-7906,Al2 Hg1 S4,7,Tetragonal,82,159.27341271374962,3.9910997012314633,22.753344673392803,2.15172338,-4.584941332857149,-1.105761051785721,False,2.0244
mp-3038,Al2 Hg1 Se4,7,Tetragonal,82,183.20425656780222,5.16996714897972,26.172036652543174,1.64730415,-17.979266177142858,-0.825231304821429,True,1.4253999999999991
mp-7910,Al2 Hg1 Te4,7,Tetragonal,82,230.80986890588417,5.503380227317927,32.97283841512631,3.22883458,-23.97713268,-0.47700404821428505,True,1.1108
mp-7188,Al2 Os1,3,Tetragonal,139,41.33040791395677,9.81098820335959,13.77680263798559,9.1716797,-22.820100166666666,-0.670291663333335,False,0.28989999999999905
mp-1103722,Al4 Pb2 S8,14,Orthorhombic,66,327.21407690849406,3.952471967194888,23.372434064892435,3.28569403,-5.198300248571438,-1.232980677142865,True,2.5904
mp-675374,Al4 Pb2 Se8,14,Orthorhombic,66,372.328146574432,5.146729625757556,26.59486761245943,2.68180817,-19.085763642142858,-0.9435391144642841,True,1.9965000000000002
mp-10910,Al4 Ru2,6,Orthorhombic,70,82.4376362145777,6.245654124184848,13.739606035762948,9.0433687,-13.744011246666666,-0.7811005950000001,False,0.086399999999999
mp-1196459,Al16 Sb40 Se48 Br72,176,Monoclinic,13,6352.433345248427,3.880584619481434,36.09337127982061,0.88466222,-3.9150682076136363,-1.013061592116477,True,1.801899999999999
mp-11674,Al4 Se6,10,Monoclinic,9,252.55345149639967,3.824586748501788,25.255345149639968,2.75585637,-12.288599007,-1.0088235364375011,False,1.8004
mp-29502,Al16 Te24,40,Monoclinic,14,1396.1935742271555,4.155653863056867,34.90483935567889,3.84845012,-18.50219873175,-0.559024813749999,False,1.854
mp-9254,Al2 Te5,7,Monoclinic,12,240.2763278172873,4.782126199336237,34.3251896881839,3.66655846,-20.48055688428571,-0.40193999714285505,False,1.046099999999999
mp-568443,Al4 V2 Cl16,22,Monoclinic,15,603.888887599563,2.136707245916147,27.449494890889227,1.86282521,-8.649564132727273,-1.6701747172727281,False,0.8418000000000001
mp-4842,Al4 Zn2 S8,14,Cubic,227,250.64764281935976,3.281121926450817,17.903403058525697,4.2853273,-8.977781778571428,-1.189953836607142,False,2.4934000000000003
mp-7907,Al2 Zn1 Se4,7,Tetragonal,82,169.04316750638472,4.2751604049269805,24.14902392948353,2.00639463,-4.348565547142856,-1.100773949910713,True,2.1529
mp-7908,Al2 Zn1 Te4,7,Tetragonal,82,216.63505529356985,4.827294159882309,30.94786504193855,3.5591303,-3.751240675714285,-0.7049379838095231,True,1.625099999999999
mp-1228446,Al6 B2 C2,10,Hexagonal,194,120.36064717516008,2.8631953255002713,12.036064717516009,7.97204476,-5.52696833,-0.09801137933333301,False,0.453
mp-1228599,Al18 B6 C18,42,Hexagonal,185,476.6806647509144,2.670926387522258,11.349539636926533,5.95087627,-6.606801873095239,-0.09221391047619,False,1.8202999999999991
mp-23426,Al8 Bi4 O18,30,Orthorhombic,55,356.7483355293301,6.236129956572592,11.891611184311005,4.48473545,-7.344153459666663,-2.857885393999998,True,2.800199999999999
mp-1591,Al4 C3,7,Trigonal,166,79.90244024318747,2.991752250158876,11.414634320455352,7.3085706,-6.186745705714287,-0.09127430607143,False,1.3154
mp-1228721,Al4 In1 Ag1 Se8,14,Monoclinic,5,360.5472584948864,4.431940641130558,25.753375606777603,3.16255508,-14.120981372857143,-0.8813140376785701,False,0.6835
mp-35267,Al5 Cu1 S8,14,Cubic,216,245.90102135672274,3.072380860125777,17.564358668337338,5.79861618,-8.937086365,-1.166566343035714,False,1.4217
mp-9203,Al6 Cd4 S1 O12,23,Cubic,217,357.9746858888572,3.87606053268021,15.5641167777764,0.53113891,-6.617809923913042,-2.71227134271739,False,2.7127
mp-9535,Al6 Cd4 Te1 O12,23,Cubic,217,374.095220807742,4.133095173099382,16.265009600336608,0.8628842600000001,-6.562885231739131,-2.700609853768116,False,2.5652
mp-530331,Al36 Sn6 Te60,102,Trigonal,152,3408.041085016975,4.5506385116219334,33.412167500166426,,-4.101457760392157,-0.6946291857843131,True,1.439
mp-28759,Al14 Tl6 S24,44,Monoclinic,4,1089.1937878605677,3.618692833357297,24.754404269558357,2.6113776,-5.034408739545455,-1.261965013636364,False,2.7961
mp-1228228,Al7 Cr1 Bi4 O18,30,Monoclinic,3,374.43214758961045,6.052542905782574,12.481071586320349,4.46512689,-7.450693378666667,-2.767509591666667,False,2.5541
mp-13875,Al32 Pb36 O84,152,Cubic,205,2444.182021705053,6.567308998631525,16.080144879638507,6.38632704,-6.9233905262499995,-2.521137595328947,True,2.8336
mp-1228964,Al1 Ag1 P2 Se6,10,Monoclinic,5,253.9287203629912,4.385035805906184,25.39287203629912,2.59070035,-4.426495843,-0.5870029005014871,False,1.6205999999999992
mp-9631,Al2 Ag2 O4,8,Hexagonal,194,87.85832335519181,6.30693839740901,10.982290419398977,4.20479798,-6.425985976249988,-2.304877096666654,False,1.4090999999999991
mp-5782,Al2 Ag2 S4,8,Tetragonal,122,169.43391449112187,3.900206524762422,21.179239311390234,2.88185789,-11.94301553125,-0.9035221214062491,True,1.8992
mp-14091,Al2 Ag2 Se4,8,Tetragonal,122,196.76109454324236,4.941582476882665,24.595136817905296,2.18218391,-14.92098608625,-0.7432121020312501,True,1.135199999999999
mp-1228963,Al1 Ag1 Sn1 Se4,7,Tetragonal,82,198.28725896771562,4.7683876179410625,28.32675128110223,2.05262524,-4.281377921428572,-0.769702025148809,True,1.1072
mp-14092,Al2 Ag2 Te4,8,Tetragonal,122,245.06077562489892,5.285977139432593,30.632596953112365,3.47746818,-20.1698675125,-0.43926148875000204,True,1.0469
mp-2172,Al1 As1,2,Cubic,216,45.711095247398035,3.701817725841658,22.855547623699017,3.58128419,-11.346857435,-0.627042776249999,False,1.503699999999999
mp-567734,Al4 As12 Se16 Cl16,48,Monoclinic,15,1627.1078969632042,2.895895612638831,33.89808118673342,-0.17957194,-4.291596732916667,-1.03045002140625,True,2.1167
mp-558360,Al2 As6 S10 Cl8,26,Monoclinic,11,782.773498471812,2.349964386581123,30.106673018146616,0.2144534,-4.529546108076923,-1.003245149230768,False,2.2534
mp-558137,Al8 B8 Pb8 O32,56,Orthorhombic,60,650.1227346639857,6.313764081542392,11.609334547571175,4.15917685,-7.567267224107142,-2.720201696845237,True,2.940799999999999
mp-561350,Al4 Bi4 S4 Cl16,28,Tetragonal,82,835.8509015210963,3.256818015369465,29.851817911467723,0.03447033,-4.318524574642857,-1.580218730714286,False,2.8305
mp-637206,Al4 Bi4 Se4 Cl16,28,Tetragonal,82,857.5358156692063,3.5376926968141813,30.62627913104308,0.1107556,-4.228496941071429,-1.581969395691965,False,2.542399999999999
mp-628665,Al4 Bi4 Te4 Cl16,28,Tetragonal,82,929.0154561340189,3.613258155161407,33.179123433357816,0.53101179,-4.132970057857141,-1.536814738809524,False,2.1634
mp-607454,Al4 C12 N12 Cl24,52,Triclinic,2,1163.5573576453032,1.8138828205019721,22.376103031640447,-0.71699648,-6.005148590192307,-0.809943794615383,False,2.5682
mp-1102961,Al2 Cd2 Cl8,12,Triclinic,2,352.70173723853594,2.647852691095329,29.39181143654466,-0.42540743000000003,-10.038171610833333,-1.463698009166666,False,2.761
mp-1229097,Al2 Cr2 Fe2 O8,14,Orthorhombic,74,147.90088334532493,4.464459791699671,10.564348810380352,5.22066652,-8.494336182142858,-2.542837820714286,False,1.4767000000000001
mp-1228984,Al1 Cu1 P2 Se6,10,Trigonal,146,236.87285777660955,4.390067296366625,23.687285777660954,3.68211813,-4.523998834999999,-0.55887899333482,True,0.8799
mp-1102536,Al2 Cu2 Br8,12,Tetragonal,112,348.6686108464379,3.90662851528565,29.05571757053649,1.26599256,-3.6123095999999872,-1.213548159999986,False,2.1451000000000002
mp-28020,Al2 Cu2 Cl8,12,Tetragonal,112,294.7232745098301,2.618109351579225,24.560272875819177,1.6152971200000001,-8.35062801,-1.319186356666666,False,2.5112
mp-1228980,Al1 Cu1 Ge1 Se4,7,Tetragonal,82,167.8665791508262,4.73835074893937,23.98093987868946,3.73763322,-4.5218678371428584,-0.7430883706249991,True,0.8904999999999991
mp-3098,Al2 Cu2 O4,8,Hexagonal,194,79.06978600731826,5.146334199359751,9.883723250914782,6.09085843,-6.8528004887499865,-2.417624361249986,False,1.8148
mp-4979,Al2 Cu2 S4,8,Tetragonal,122,146.42766229382923,3.5077372781402403,18.303457786728654,5.20145593,-9.37487505,-0.9626519264062481,True,1.6756
mp-8016,Al2 Cu2 Se4,8,Tetragonal,122,172.5678946576471,4.7813858384767585,21.570986832205886,3.87614444,-12.30683789125,-0.7563341932812491,True,0.8921999999999991
mp-1228961,Al2 Cu2 Sn2 S8,14,Orthorhombic,74,271.5089317769453,4.128246124787186,19.393495126924666,5.48935852,-4.96781685,-0.909560760714285,False,0.712699999999999
mp-1229027,Al1 Cu1 Sn1 Se4,7,Tetragonal,82,181.58905275395477,4.801565692513809,25.941293250564968,3.48115986,-4.463928064285715,-0.772785169196429,True,0.551299999999999
mp-8017,Al2 Cu2 Te4,8,Tetragonal,122,218.71279783515297,5.249753008760489,27.33909972939412,4.91045025,-17.52852994375,-0.42519420625000104,True,1.0186
mp-17477,Al4 Fe4 P4 O20,32,Monoclinic,14,423.5165893149473,3.039389688781344,13.234893416092103,2.37773372,-8.0470451153125,-2.750685666517856,False,0.5231
mp-1228891,Al1 Ga1 As2,4,Trigonal,160,91.21657145338672,4.488243147095224,22.80414286334668,3.24524361,-12.434816665,-0.537332601249999,True,0.700499999999999
mp-23933,Al2 H6,8,Trigonal,167,65.66805385043641,1.5174827710326961,8.208506731304551,1.01155368,-4.34799096625,-0.073632082812499,False,2.197699999999999
mp-568001,Al8 Hg16 Sb8 Cl32,64,Orthorhombic,60,1924.7967233796928,4.774116874039054,30.0749488028077,0.56434627,-20.54745566140625,-1.074482824531251,False,1.1967
mp-27935,Al2 I2 Cl12,16,Monoclinic,4,489.46335736234505,2.487460068647398,30.591459835146566,-0.9582399300000001,-3.370098035625,-1.32499238,False,2.291
mp-504482,Al6 In6 S18,30,Hexagonal,169,713.3884528706352,3.323848829280726,23.77961509568784,3.0539757,-11.685050144666667,-1.001912953354167,False,2.081299999999999
mp-862787,Al6 In6 Se18,30,Hexagonal,169,815.5387502722511,4.62623389035123,27.184625009075038,2.50975971,-15.312994939,-0.8639210584375001,True,1.6333000000000002
mp-1214829,Al2 Ni2 Ag4 F14,22,Orthorhombic,74,285.3214290767629,5.056321498261953,12.969155867125586,0.73459213,-5.092989166818182,-2.4922114857575752,False,1.9697
mp-1550,Al1 P1,2,Cubic,216,40.983457924417976,2.348192310671479,20.491728962208988,4.36978098,-8.604336105,-0.737248783988095,False,1.6294
mp-28046,Al8 P16 I72,96,Orthorhombic,61,4669.546937631664,3.5022475308334533,48.64111393366317,0.58774509,-2.9355209029166662,-0.577801201607142,True,1.686
mp-568423,Al4 P4 I32,40,Orthorhombic,33,1931.8606688980203,3.689863789335752,48.296516722450505,0.7478829,-2.77911623425,-0.6438012067142851,False,1.4878
mp-1102285,Al2 P2 S8,12,Tetragonal,112,303.32308333107903,2.038867454788788,25.27692361092325,1.49607681,-8.672575278333333,-0.693546783204364,False,2.8338
mp-1228817,Al1 Re1 Ge1,3,Tetragonal,107,42.66967420276164,11.123343769607862,14.223224734253881,8.83008664,-24.62700390666667,-0.28877370083333104,False,0.11870000000000001
mp-555805,Al2 S2 Cl14,18,Monoclinic,7,524.0641541194176,1.9468865434888991,29.114675228856534,-1.08248774,-3.602239992222224,-1.288491659166669,True,2.4961
mp-2624,Al1 Sb1,2,Cubic,216,59.15180866014202,4.175546636123753,29.575904330071012,4.4349805,-16.472182515,-0.252975485,False,1.2255
mp-1194909,Al4 Sb8 Se8 Cl16,36,Triclinic,2,1147.4532497964842,3.300858028329444,31.873701383235673,1.66711261,-4.2335156925,-1.3013409741319442,False,1.121999999999999
mp-567743,Al8 Sb16 Te16 Cl32,72,Triclinic,2,2450.00959887164,3.619356622407354,34.02791109543944,2.2264793,-4.083883054999999,-1.230065133148147,False,1.0432
mp-676861,Al1 Sb1 O4,6,Orthorhombic,65,61.01378780609018,5.789865919533531,10.168964634348363,6.3855935,-7.154437081666667,-2.5433669,True,1.6178
mp-1205403,Al2 Se2 Cl14,18,Triclinic,1,512.449975324386,2.294927242199511,28.469443073576997,1.5401438600000001,-8.086753680555555,-0.9633391423958331,False,2.5979
mp-31220,Al2 Si2 Te6,10,Trigonal,162,304.87831837107495,4.76974110495312,30.487831837107496,4.11685656,-18.683889487000002,-0.332382315999998,False,1.2504
mp-29407,Al2 Te2 I14,18,Monoclinic,7,874.5762406291072,3.960312239223144,48.58756892383929,0.27101582,-2.631290692777778,-0.680516245185186,False,1.8846
mp-985477,Al8 Tl8 S16,32,Monoclinic,15,800.5090002984143,4.9036872618900755,25.015906259325448,3.18805034,-4.736265790625,-1.137824020208334,True,2.1201
mp-863762,Al8 Tl8 Se16,32,Monoclinic,15,908.242970799383,5.693830424794208,28.38259283748072,2.67023972,-23.034003498125,-0.9003726551562501,False,1.788999999999999
mp-1281387,Al2 V4 O8,14,Orthorhombic,74,147.64208940673518,4.33826311860247,10.545863529052513,6.03221329,-8.722876605,-2.764986320714285,False,0.2716
mp-2767452,Al4 V8 O16,28,Triclinic,1,281.0322381572287,4.558268726937316,10.036865648472453,7.5777006700000005,-11.235359751428572,-2.83716957,True,0.161999999999999
mp-20014,Al4 V4 Mo4 O28,40,Orthorhombic,62,586.8476167195777,3.235455034692779,14.671190417989441,-0.12029641,-8.291184986000001,-2.4600990815,True,2.3841
mp-1182867,Al1 W1 O4,6,Orthorhombic,65,59.466540248121035,7.674028352592433,9.911090041353505,4.32611183,-8.765301039999999,-2.682709359999999,False,2.980299999999999
mp-28159,As2 Br6 F12,20,Triclinic,2,396.53621659087327,3.5898205459455133,19.826810829543664,-1.7999556700000001,-3.7749092810000002,-1.6685016422500012,False,1.6272
mp-27445,As2 I6 F12,20,Triclinic,2,468.8516723779201,4.034902013756525,23.442583618896006,-0.09973775,-3.799419598999988,-1.726892136249988,False,1.3305
mp-558244,As2 I4 F12,18,Monoclinic,12,354.6023323935869,4.146365554856233,19.700129577421492,0.04219014,-4.046235232222222,-1.912761675277777,False,0.5218
mp-27578,As16 S64 F96,176,Monoclinic,14,3356.6453499231793,2.510489962729289,19.071848579108973,-0.44870647,-4.727692241534091,-1.754358145852272,False,1.2407
mp-30934,As1 S24 I3,28,Trigonal,160,835.5820863702693,2.434810668507847,29.84221737036676,-0.07984157,-4.371489545000001,-0.494247045089285,False,2.0753
mp-15649,As8 Ir4,12,Monoclinic,14,212.13472096243024,10.710256626582213,17.677893413535852,6.44121523,-27.829211324166668,-0.571072849166668,False,0.8155000000000001
mp-1788,As8 O20,28,Orthorhombic,19,343.77220326522104,4.440831778137766,12.277578688043608,1.34530062,-6.426088671428571,-1.557510087142856,True,1.426
mp-2455,As4 Os2,6,Orthorhombic,58,102.41355313495791,11.02793169102378,17.068925522492986,6.41089284,-27.770656393333336,-0.303892785000002,False,0.6646999999999991
mp-540883,As8 P8 S28,44,Monoclinic,14,1180.2759659590304,2.455029461692339,26.824453771796144,0.77713452,-9.660029340000001,-0.23601041505817003,False,2.6841
mp-557799,As4 Pb2 Xe6 F36,48,Monoclinic,12,889.8750592652611,4.078757490910603,18.53906373469294,-0.98693928,-3.876743017916666,-1.8929614597916662,True,2.5938
mp-680722,As4 Pb28 Cl8 O34,74,Monoclinic,15,1504.3350346165244,7.648357758354693,20.328851819142223,3.6466442900000002,-5.750494837162162,-1.620040449864864,False,2.0997
mp-505465,As8 Pb8 O20,36,Monoclinic,14,634.6659192267454,6.742356808303725,17.629608867409594,2.77184515,-6.2513727191666675,-1.639667804722222,False,2.936
mp-31107,As4 Pb16 O26,46,Monoclinic,12,831.1107926930558,8.053581417380528,18.06762592810991,3.71430627,-6.128784897608697,-1.634658171956522,False,2.0725
mp-28537,As8 Pb4 O16,28,Monoclinic,14,480.8742475198438,5.815696728518744,17.17408026856585,2.08657574,-6.338226861071429,-1.646121696071428,True,2.846199999999999
mp-20015,As2 Pb1 O6,9,Trigonal,162,114.43463048256831,6.573971107735893,12.71495894250759,3.54799653,-6.482162159999998,-1.7332001416666651,False,2.1358
mp-2513,As8 Pt4,12,Cubic,205,216.90309132645186,10.562598941863977,18.075257610537655,6.16536856,-27.57497112833333,-0.607378169999999,False,0.0785
mp-15954,As8 Rh4,12,Monoclinic,14,209.600517428747,8.009504852964664,17.466709785728916,5.97706546,-18.423023033333333,-0.5725928316666651,False,0.2625
mp-766,As4 Ru2,6,Orthorhombic,58,101.2371077110571,8.23119467448224,16.872851285176186,6.26836811,-18.736602063333333,-0.45673630666666704,False,0.44920000000000004
mp-1189572,As8 S12,20,Triclinic,2,526.4141283759965,3.104445879796971,26.320706418799823,1.60174576,-10.8599447265,-0.155932882187498,False,1.9873
mp-909,As8 Se12,20,Monoclinic,14,561.681862836406,4.573186524611719,28.0840931418203,1.60280202,-14.6094313875,-0.139482853937499,False,1.4466
mp-540912,As12 Ir4,16,Cubic,204,309.087375814539,8.96076155988533,19.317960988408686,6.36148499,-24.628755081875,-0.508268478749997,True,0.026799999999999
mp-1214749,As6 Pb10 Br2 O24,42,Hexagonal,176,725.1646970113687,7.019217767126803,17.2658261193183,5.87750195,-6.183022950238095,-1.7265428767857132,False,2.9898
mp-510724,As6 Pb10 Cl2 O18,36,Hexagonal,176,690.928260189015,6.922654904135786,19.192451671917084,3.22355124,-6.015325571666667,-1.62900363875,False,2.6399
mp-1095378,As2 Au2 O8,12,Monoclinic,15,183.84232180975374,6.067715375316714,15.320193484146145,-0.23619548,-5.787612073333332,-1.164970647916666,False,1.8671000000000002
mp-23444,As4 Cl8 F12,24,Tetragonal,85,464.89640505439934,2.897808589412205,19.370683543933307,-2.523679409999999,-7.6451510208333335,-1.580068915416666,False,2.8871
mp-29863,As4 Cl12 O4,20,Monoclinic,14,502.69663632597803,2.606670690721858,25.134831816298902,-1.75682186,-4.188813654999999,-1.156071267499999,False,2.5284
mp-1201143,As4 Cl4 O4 F32,44,Orthorhombic,33,670.6138418217076,2.757054274214318,15.241223677766083,-0.19549662,-4.206193713181818,-1.7718805006818181,True,2.8596
mp-23218,As2 I6,8,Trigonal,148,340.20575807555747,4.447894935673874,42.525719759444684,0.94172182,-2.789183233749998,-0.47864313937499803,False,2.2375
mp-31020,As2 I10 F12,24,Monoclinic,15,640.8326006426267,4.267401307194904,26.70135836010945,0.27726077,-3.427569553333332,-1.446461231874999,False,1.4099
mp-555340,As4 I4 F48,56,Cubic,205,793.3146274163055,3.5986285280895762,14.166332632434026,-2.49444082,-4.103919015000001,-2.021035897321429,True,0.649
mp-1228823,As4 Ir4 S4,12,Cubic,198,196.7516370828484,10.100841325313093,16.395969756904034,6.7452238399999995,-25.73264631083333,-0.6986851376041681,False,1.863
mp-1228810,As4 Ir4 Se4,12,Cubic,198,213.52734143483895,10.766026352104385,17.793945119569912,6.0415752,-27.7489379375,-0.622789714687499,False,1.4699