material_id,composition,nsites,crystal_system,space_group,volume,density,density_atomic,efermi,energy_per_atom,formation_energy_per_atom,is_gap_direct,band_gap
mp-1191317,Sr4 Co2 Ge4 O14,24,Tetragonal,113,368.27191849131054,4.431889668818522,15.344663270471273,2.21458914,-7.04449226625,-2.5111542958333333,True,2.15
mp-1275355,Sr8 Co4 O16,28,Monoclinic,12,377.1589462437391,5.251093827128319,13.469962365847824,2.29698724,-6.678042948928572,-2.348026246071429,False,0.7733999999999991
mp-561642,Sr4 Co2 Te2 O12,20,Monoclinic,14,261.03340450061205,5.824115097095763,13.051670225030602,4.01083871,-6.6669557264999995,-2.332021244166666,True,1.509999999999999
mp-1029923,Sr8 Cr4 N12,24,Orthorhombic,64,378.32371356924705,4.727279025742861,15.763488065385294,4.67589738,-13.18384336625,-1.0586906089583341,True,0.27090000000000003
mp-19514,Sr16 Cr8 O32,56,Orthorhombic,33,825.2423517880527,4.688125230729009,14.736470567643797,2.52808739,-7.478383883035714,-2.788419930178571,False,1.9972
mp-1084823,Sr2 Cr1 Sb1 O6,10,Monoclinic,12,127.78675562107807,5.782504039660558,12.778675562107807,3.90565263,-7.358997936,-2.673530843999999,False,1.6894
mp-10950,Sr2 Cu1 P2 O8,13,Monoclinic,12,191.63224012706922,3.715036648861915,14.740941548236094,2.13792139,-7.337577946153846,-2.883831950714285,False,0.22160000000000002
mp-552537,Sr2 Cu1 Br1 O2,6,Trigonal,166,133.98229244984466,4.346338922638349,22.33038207497411,1.8735977400000001,-5.580716716666668,-2.411228150833334,False,2.3439
mp-561243,Sr6 Cu3 Cl3 O6,18,Trigonal,152,392.56733964624385,3.8861090509558123,21.809296647013547,2.00849018,-5.710129779444444,-2.505375169444444,False,2.384299999999999
mp-556507,Sr8 Fe4 Br4 O12,28,Tetragonal,129,492.9324665122417,4.837273342753482,17.604730946865775,3.04516351,-6.613424660357142,-2.565466526071428,False,1.1631
mp-1078746,Sr2 Fe1 H6,9,Cubic,225,101.93585667503194,3.862899920891555,11.326206297225772,1.88906222,-4.199036381111103,-0.618383489722214,False,1.3141999999999991
mp-1173284,Sr24 Fe12 Mo12 O72,120,Triclinic,1,1543.365702749856,5.461649635906223,12.861380856248799,4.10244327,-7.771415679416667,-2.5325863264166673,False,0.6149
mp-1218828,Sr8 Fe4 O12 F4,28,Tetragonal,107,402.5402772313181,4.918525426104614,14.376438472547076,3.57560308,-6.977596956785713,-2.890080845357141,False,0.626
mp-1218824,Sr4 Fe2 Sb2 O12,20,Monoclinic,12,258.08658305849883,5.775725886831556,12.90432915292494,3.71913991,-7.0909342075,-2.523769741499999,False,1.6733
mp-867219,Sr4 Ga2 Ge2 N2,10,Monoclinic,11,238.6793636535426,4.614147224833469,23.86793636535426,2.98170299,-4.605898672,-0.7310471115,False,0.030599999999999003
mp-2576,Sr8 Ge4,12,Orthorhombic,62,404.3083594015766,4.072282101097739,33.692363283464715,2.6666555,-15.341575461666666,-0.6204755550000011,True,0.363399999999999
mp-18112,Sr8 Ge8 Se20,36,Monoclinic,14,978.7136373877253,4.854604083338215,27.186489927436813,2.06450342,-4.670990235000001,-1.325382537413196,False,1.369799999999999
mp-29089,Sr16 Ge8 N16,40,Tetragonal,135,749.4747031062218,4.8901639190046975,18.736867577655545,3.53201254,-5.741364282250002,-0.8044763772500021,True,0.0529
mp-4578,Sr4 Ge2 S8,14,Monoclinic,11,355.9348598693683,3.509603778287727,25.423918562097736,2.55201664,-5.193057459285713,-1.684297129999998,False,2.329099999999999
mp-30293,Sr4 Ge2 Se8,14,Orthorhombic,40,412.76445797369917,4.535657392688581,29.48317556954994,1.43666982,-4.712352684285731,-1.570705549196445,True,1.7283
mp-1095649,Sr2 H3 N1 O6,12,Hexagonal,189,139.79828634198253,3.424065450255136,11.649857195165211,0.08065363,-6.2140245316666665,-1.914324592395833,False,2.9533
mp-35152,Sr2 H5 Rh1,8,Tetragonal,107,110.45662396117456,4.257237554609883,13.80707799514682,2.38173076,-9.6199157825,-0.6570266854687501,False,0.580299999999999
mp-24292,Sr2 H6 Ru1,9,Cubic,225,109.73254399144821,4.272806178716852,12.19250488793869,1.21048843,-9.185292585555555,-0.6912334919444441,False,2.236099999999999
mp-690794,Sr2 H1 N1,4,Trigonal,166,79.3732125890664,3.980250414677526,19.8433031472666,1.97406357,-11.477078275,-0.758281971875,True,1.8058
mp-569677,Sr2 I1 N1,4,Trigonal,166,108.63883360501431,4.83235461313041,27.159708401253578,3.25263171,-4.585333094999999,-1.273546459999999,False,1.7923
mp-22355,Sr4 In2 Sb2 O12,20,Monoclinic,14,278.0100614586075,6.06629591287356,13.900503072930373,3.70141075,-6.577850667999999,-2.581770948666666,False,1.7824
mp-541568,Sr8 Li12 Nb4 N16,40,Orthorhombic,58,557.6955733985552,4.10890573311658,13.942389334963881,3.27339541,-6.253893079500001,-0.9972889995,True,2.1559
mp-1218762,Sr2 Li7 Cu1 N4,14,Orthorhombic,44,196.99354163969397,2.894657249249262,14.070967259978142,1.60728313,-4.394250449285715,-0.522848028095238,False,0.5680000000000001
mp-569001,Sr4 Li2 Co2 N4,12,Tetragonal,136,217.6254748591311,4.10702732009549,18.135456238260925,2.76949114,-5.4898491116666674,-0.639223902222222,False,0.2539
mp-1078539,Sr2 Mg1 Mo1 O6,10,Tetragonal,87,127.84498276789084,5.084831210994781,12.784498276789083,2.85410083,-7.415587565999999,-2.860713332499999,False,2.313
mp-1201675,Sr8 Mn8 Se4 O16,36,Orthorhombic,62,641.7339943268606,4.430702390165493,17.82594428685724,1.92696847,-7.403081202777778,-2.403454284800647,False,1.8317
mp-555929,Sr4 Mn2 Mo2 O12,20,Monoclinic,14,267.5680264466202,5.239322020701259,13.37840132233101,3.73677476,-7.956838284,-2.648809522793103,True,0.930099999999999
mp-1285223,Sr8 Mn4 Nb4 O24,40,Monoclinic,12,521.3181162052191,5.339542673414509,13.032952905130477,3.10447938,-8.228456148000001,-2.994861893793104,False,1.202
mp-559244,Sr8 Mn4 P12 O44,68,Monoclinic,14,858.1538439419526,3.8630042085444263,12.619909469734596,2.03340551,-7.856708940735237,-2.961364052315213,False,0.10349999999999901
mp-1218763,Sr2 Mn1 Sb1 O6,10,Tetragonal,87,129.89841091341515,5.726110427125111,12.989841091341514,4.04157468,-7.22355378,-2.587189905793104,False,0.8793000000000001
mp-1191740,Sr4 Mn2 Si4 O14,24,Tetragonal,113,353.95302321400425,3.737598685242988,14.748042633916844,2.45302328,-8.046011655416667,-3.209908774827586,False,2.8825000000000003
mp-1208762,Sr4 Mn2 Te2 O12,20,Monoclinic,14,270.2419925849389,5.5765588918265525,13.512099629246944,5.4419757,-7.049533311500001,-2.511738971959771,True,1.4722
mp-23033,Sr2 N1 Cl1,4,Trigonal,166,92.38896942904702,4.038605825015194,23.097242357261756,2.7925025100000003,-13.0337000625,-1.640572135312501,True,1.9398
mp-531195,Sr32 N16 F16,64,Orthorhombic,63,1228.2636256042097,4.504559081073723,19.191619150065776,2.51990462,-5.45719257203125,-2.04794599703125,False,1.5754000000000001
mp-3870,Sr4 Nb4 O14,22,Orthorhombic,36,310.74594948079374,5.055677253984123,14.124815885490625,1.45573385,-8.593382337272727,-3.300364764999999,False,2.6843999999999992
mp-1206057,Sr2 Nb1 Al1 O6,10,Cubic,225,122.2325707552347,5.313454563867059,12.22325707552347,6.24469328,-8.058527036,-3.366576727999999,True,2.8384
mp-1205690,Sr8 Nb4 Cr4 O24,40,Cubic,225,515.0960757994159,5.366104692595314,12.877401894985397,3.02637809,-8.38673944975,-3.10404197775,False,2.2687
mp-1218741,Sr4 Nb2 Fe2 O12,20,Cubic,225,260.5424451833529,5.353493291227974,13.027122259167646,2.86989523,-8.088352271,-2.9239574249999993,False,1.7829000000000002
mp-17701,Sr8 Nb4 N12,24,Monoclinic,15,429.5279448690778,4.796368323339664,17.89699770287824,2.40290976,-7.637901558749999,-1.221069149583333,False,2.2935
mp-18940,Sr4 Ni2 Mo2 O12,20,Tetragonal,87,253.890917647127,5.570687181240576,12.69454588235635,3.08006402,-7.450212725499999,-2.480371825499999,False,2.3095
mp-1195664,Sr8 P28 Br4,40,Cubic,198,967.3116536446686,3.240769692124358,24.182791341116715,3.4624902,-5.070630200249998,-0.7776184609999971,False,2.133099999999999
mp-1194705,Sr16 P56 Cl8,80,Monoclinic,15,2005.124316423132,2.832326932065758,25.06405395528915,3.36184231,-5.149113200124999,-0.834941834374998,False,1.948
mp-1195270,Sr8 P28 I4,40,Cubic,198,1010.9933825719853,3.409536418067648,25.27483456429963,3.79458042,-4.989048588,-0.7073302407499991,False,2.105799999999999
mp-4359,Sr2 Pd1 O3,6,Orthorhombic,71,90.81177964681467,6.027965995755455,15.135296607802445,3.05120574,-6.295895815000001,-2.394458980833334,False,0.2353
mp-541114,Sr8 Rh4 F28,40,Monoclinic,14,554.9501983890095,4.920835101579739,13.873754959725238,0.7689099500000001,-10.886973606249999,-3.25599896425,False,1.85
mp-4103,Sr4 Sb4 O14,22,Orthorhombic,74,300.30559622315633,5.869625819890577,13.650254373779832,3.65151314,-6.7772064899999975,-2.570062335909088,False,1.370399999999999
mp-1105180,Sr4 Sb4 Se6 O4,18,Monoclinic,14,444.15628959524076,5.141663499352949,24.67534942195782,4.7481328099999995,-5.38683541,-1.8283337318923611,True,0.7681999999999991
mp-16897,Sr16 Sb24,40,Monoclinic,14,1355.1222398389887,5.298737190736542,33.87805599597472,4.67891829,-4.06810163575,-0.9137296557499991,False,0.155899999999999
mp-1105158,Sr4 Sc2 Ga2 O10,18,Orthorhombic,46,263.0145802718084,4.670918415231355,14.611921126211579,4.75642997,-7.363704693333334,-3.198679545277778,False,2.765899999999999
mp-1208760,Sr4 Sc2 Nb2 O12,20,Monoclinic,14,270.5625068742748,5.02157056429574,13.52812534371374,5.08714107,-8.4507531375,-3.500113502,False,2.9419999999999993
mp-1106,Sr8 Si4,12,Orthorhombic,62,400.7831001280795,3.369702324055887,33.39859167733996,2.80569404,-13.454768614999999,-0.433073036666667,True,0.34339999999999904
mp-1104926,Sr4 Si2 S8,14,Monoclinic,11,345.409846619529,3.188158542999471,24.672131901394927,2.713063039999999,-11.964072897142858,-1.791918173750001,False,2.8995
mp-978,Sr8 Sn4,12,Orthorhombic,62,459.45344941543595,4.249531344236076,38.28778745128633,3.29581967,-19.073301815,-0.727466508333333,False,0.152399999999999
mp-4287,Sr8 Sn4 O16,28,Tetragonal,138,418.3856102043846,5.682661727350975,14.942343221585164,2.94036817,-6.669028192857142,-2.785275042142856,False,2.6531000000000002
mp-17676,Sr8 Sn4 S12 F8,32,Orthorhombic,62,693.0163860293587,4.103488517177864,21.65676206341746,2.59612953,-5.421889795625,-2.467238359687499,True,2.0801
mp-30294,Sr4 Sn2 S8,14,Orthorhombic,40,383.2287284740521,3.6588916603451143,27.373480605289437,2.28498247,-14.054221609999999,-1.6002927173214272,False,2.4784
mp-1218773,Sr8 Sn4 S20,32,Orthorhombic,18,764.3274466905207,3.947739350436545,23.88523270907877,4.51765985,-13.3245294396875,-1.422966773320313,True,1.005499999999999
mp-568525,Sr16 Sn8 Se40,64,Orthorhombic,18,1771.670219130998,5.164375490520945,27.682347173921844,3.30895425,-17.18473135390625,-1.360317969570314,True,1.2442
mp-1206645,Sr4 Ti2 Mn2 O12,20,Tetragonal,87,236.3324321724423,5.256243726183258,11.816621608622116,3.42550504,-8.040935327000001,-3.027922375126438,True,0.9884000000000001
mp-5532,Sr2 Ti1 O4,7,Tetragonal,139,95.59542788402864,4.987146509547847,13.656489697718376,2.51677959,-7.88231787,-3.443433267619047,False,1.9141999999999992
mp-1192478,Sr4 V6 H2 O18,30,Monoclinic,11,397.41685408719803,3.953261131036313,13.247228469573267,1.84930488,-7.950320090000001,-2.712760765083334,False,1.958899999999999
mp-17012,Sr8 V4 N12,24,Monoclinic,15,387.54053875295006,4.596775717531164,16.147522448039584,2.90078147,-13.308757045416668,-1.347565398125001,False,1.518399999999999
mp-9306,Sr2 Zn1 N2,5,Tetragonal,139,95.3645354122104,4.678095572931343,19.07290708244208,2.58442111,-12.213631898,-0.7217466805,False,0.5344
mp-1189305,Sr6 Al4 As8,18,Monoclinic,15,486.407246320169,4.2093865976078995,27.022624795564944,3.44392026,-14.23590076,-1.154644779999999,True,1.1456
mp-17129,Sr12 Al8 N16,36,Orthorhombic,52,566.2227940193515,4.373768019282196,15.728410944981984,3.876778449999999,-11.834395023333334,-1.232596961666667,False,1.9055
mp-9843,Sr6 Al4 P8,18,Monoclinic,15,449.1035680243118,3.259068581765055,24.95019822357288,3.79002962,-11.708680888333333,-1.163182541878307,True,1.3365
mp-1218347,Sr9 B6 N12,27,Cubic,221,447.18702664935773,3.7932327945044033,16.562482468494732,1.99280291,-12.033902542222222,-1.295603176666666,True,1.9096000000000002
mp-30239,Sr6 B4 S12,22,Monoclinic,15,516.6651644623379,3.065291179798121,23.48478020283354,2.44351135,-5.600755979090909,-1.6674627775757571,False,2.3176
mp-1192011,Sr6 Co4 O12,22,Trigonal,167,284.9079111990537,5.557001301943329,12.950359599956984,2.982329769999999,-6.77347794090909,-2.316033964545454,False,1.3059
mp-18924,Sr3 Fe2 O6,11,Tetragonal,139,151.49344793192236,5.157719297531043,13.77213163017476,3.27917437,-7.215234959090909,-2.514771984545455,False,0.32010000000000005
mp-1189054,Sr6 Ga4 As8,18,Monoclinic,15,487.58969188753065,4.781421035148443,27.088316215973926,3.08756642,-15.16897628611111,-1.040903057222222,False,0.6766999999999991
mp-16945,Sr12 Ga8 N16,36,Orthorhombic,52,584.9324232791039,5.2045637384064865,16.248122868863998,2.96503237,-12.446143610555556,-0.7975283000000011,True,1.5856
mp-1106227,Sr6 Ga4 P8,18,Monoclinic,15,449.9461747508001,3.883919660274022,24.99700970837778,3.42507058,-12.614594509444444,-1.022278914100529,False,1.067199999999999
mp-17504,Sr12 Ge8 As16,36,Monoclinic,14,994.4969454009201,4.727509300079346,27.624915150025558,2.66476089,-15.613000441944443,-0.9451046286111091,False,0.8754999999999991
mp-18351,Sr12 Ge8 P16,36,Monoclinic,14,918.9496606225393,3.8455424485641823,25.526379461737204,3.27917653,-13.052674435277778,-0.9205362554894181,True,1.0635
mp-28324,Sr6 In4 P8,18,Orthorhombic,58,487.60960564540915,4.198200378566116,27.089422535856063,3.9820471,-4.388825428333336,-0.804655888544974,True,0.5893
mp-11677,Sr6 Si4 As8,18,Monoclinic,15,489.0383590083518,4.201733442621964,27.16879772268621,3.10171228,-14.521994010555554,-0.9870344161111101,True,0.9176000000000001
mp-1195093,Sr12 Sn8 As16,36,Monoclinic,14,1080.0894924532824,4.919501461495123,30.002485901480068,4.19851574,-18.046600461388888,-0.962214381388889,False,0.752999999999999
mp-571291,Sr36 Sn24 P48,108,Orthorhombic,64,3019.221680216543,4.11947380369868,27.955756298301324,4.11478442,-15.45842710611111,-0.9097986596560821,False,0.9885
mp-1029733,Sr6 Al6 N10,22,Triclinic,2,322.8565549434943,4.256963955118123,14.675297951977013,4.06378094,-11.432549024090909,-1.316455246249999,False,2.142299999999999
mp-1192533,Sr12 Al4 As12,28,Orthorhombic,64,808.4378500884791,4.228025340831158,28.872780360302823,2.67577861,-15.012201768928572,-1.2562482685714271,True,0.9824
mp-17667,Sr12 Al4 Sb12,28,Orthorhombic,64,971.9807572165693,4.47685779842661,34.71359847202033,3.6357493,-3.98814253,-0.9581619842857141,True,0.5371
mp-15339,Sr6 As8,14,Orthorhombic,43,404.25358395338986,4.6215064556256085,28.875255996670706,2.90668447,-16.02776293642857,-1.132461913571429,False,0.616699999999999
mp-1013555,Sr3 As1 N1,5,Cubic,221,132.31336935948244,4.414959864983109,26.462673871896488,3.07526231,-14.906711974,-1.052059000250003,True,0.4218
mp-9702,Sr6 B2 P2 O6,16,Hexagonal,194,311.95703682891855,3.754218343109072,19.49731480180741,2.62252477,-6.589790245625,-2.587786172976191,False,2.0101
mp-1208816,Sr12 Ca4 C4 N16,36,Orthorhombic,62,662.913966948857,3.7170392612892,18.414276859690474,4.16791229,-6.418724205277778,-0.9004285805555561,True,1.4804
mp-862670,Sr6 Co2 C6 N6,20,Hexagonal,176,357.4377996668862,3.715101758215746,17.87188998334431,3.11720929,-7.2059852865,-0.714832216249999,False,1.1035
mp-1284324,Sr6 Co2 Ru2 O12,22,Triclinic,2,306.8570820236889,5.615556414052329,13.94804918289495,3.95159855,-7.03071716409091,-2.378638113181819,False,0.151599999999999
mp-7214,Sr24 Cr8 N32,64,Orthorhombic,61,1097.7997567594086,4.487999133116024,17.15312119936576,2.57513583,-13.21277179265625,-1.08460575703125,True,1.5373
mp-556960,Sr6 Fe4 Se12 O36,58,Trigonal,167,923.7419061527507,4.085273603759863,15.92658458884053,1.32208124,-6.465137889482758,-1.911479487898706,True,2.4393000000000002
mp-570971,Sr6 Ga6 N10,22,Triclinic,2,339.0322749193775,5.309913093099539,15.410557950880797,3.16183522,-12.177221919545456,-0.776397881704547,True,1.361899999999999
mp-30158,Sr6 Ga8 O18,32,Triclinic,2,487.2518818714102,4.674005628114282,15.226621308481569,0.64568745,-6.579841153749998,-2.722258815937498,False,2.8947000000000003
mp-1194661,Sr24 Ga8 As24,56,Orthorhombic,62,1616.503503153661,4.580245171274894,28.866133984886805,3.24519259,-15.631551496071427,-1.202644050000001,True,0.7012
mp-7191,Sr6 Ga2 N6,14,Hexagonal,176,269.61664902533033,4.6142779703565395,19.25833207323788,2.38766227,-12.845250575714287,-0.8072489794642881,False,0.5667000000000001
mp-542625,Sr24 Ga8 Sb24,56,Monoclinic,14,1917.2882886199436,4.835282337092023,34.23729086821328,3.57389363,-3.877118164285714,-0.9496347339285711,False,0.33939999999999904
mp-30950,Sr12 Ge4 O4,20,Orthorhombic,62,517.9996391565651,4.507172912605396,25.899981957828253,3.5615997200000002,-4.488673586500001,-1.5590189605,True,0.31880000000000003
mp-1304797,Sr12 In4 Ni4 O24,44,Monoclinic,14,597.7331053441171,5.915801027557029,13.58484330327539,3.33076911,-6.349188225909091,-2.412428160151515,False,0.6869999999999991
mp-616026,Sr12 In4 P12,28,Orthorhombic,62,778.618785565936,4.014537093651413,27.807813770212,3.58136497,-4.377863323214287,-0.9374520961564631,True,0.8115999999999991
mp-669389,Sr6 In2 Rh2 O12,22,Trigonal,167,317.2428204220284,6.03596606342515,14.42012820100129,4.40030663,-6.5664650286363635,-2.485689400151514,False,1.5007000000000001
mp-567371,Sr3 Li4 Ge2 N6,15,Monoclinic,12,199.45437781438716,4.328747586355586,13.296958520959144,2.9730493,-5.519768662666665,-0.720522134888888,False,2.0534
mp-1104857,Sr3 Li4 Si2 N6,15,Monoclinic,12,188.077732690613,3.803845732462569,12.538515512707534,5.98643289,-5.946527102666666,-1.040308551555555,False,2.107
mp-1192357,Sr12 Li4 As8 H4,28,Orthorhombic,62,687.1974474452362,4.065843460366215,24.542765980187006,2.26704998,-3.831359145,-1.013985053511904,False,1.4556
mp-6721,Sr6 Li2 Ru2 O12,22,Trigonal,167,307.2716927226245,5.046033038401567,13.96689512375566,3.28000599,-6.758855225454545,-2.5817301612121213,True,0.5632
mp-567398,Sr12 Mg4 Ge4 N16,36,Orthorhombic,52,592.0385254639765,4.665270379108885,16.44551459622157,3.16988568,-5.787207885833333,-0.8223308725,True,1.724699999999999
mp-570046,Sr18 Mo6 N24,48,Monoclinic,15,905.4093295079841,4.564804568428675,18.862694364749668,2.31514282,-7.258605002916666,-1.099099332916666,False,2.0559
mp-1853,Sr6 P28,34,Monoclinic,14,809.2224187572491,2.858431150710388,23.800659375213208,3.70108228,-10.62940290882353,-0.543164580686272,False,1.8291
mp-32635,Sr24 P16,40,Tetragonal,122,1222.0612098452532,3.530792588013914,30.55153024613133,2.9514130400000003,-13.905198664,-1.216971497190476,True,0.3946
mp-14288,Sr6 P8,14,Orthorhombic,43,366.17862612291646,3.5076971761491142,26.155616151636888,3.61388811,-12.742934245714284,-1.107893037414965,False,0.8898
mp-1013554,Sr3 P1 N1,5,Cubic,221,129.49301741662526,3.94755735582669,25.898603483325054,3.12298859,-13.66628144,-0.95271940134524,True,0.519699999999999
mp-29295,Sr12 Sb16 S36,64,Orthorhombic,33,1663.2902105360477,4.147069228580007,25.988909539625745,4.28377999,-4.9364316384375,-1.259023804843749,True,1.0677
mp-1208807,Sr12 Sb4 I12,28,Cubic,214,1213.5584442936197,4.18889104931055,43.341373010486414,2.58133282,-3.682898631428571,-1.7145667235714281,True,1.4793999999999992
mp-7752,Sr3 Sb1 N1,5,Cubic,221,140.19996748628466,4.72136492046329,28.039993497256933,3.7761158,-4.536857728000001,-1.027945077000001,True,0.25769999999999904
mp-18247,Sr6 Sc2 Rh2 O12,22,Trigonal,167,308.06456934487744,5.462651705500749,14.002934970221702,3.72257965,-7.349915895454544,-2.944295234090908,False,2.258099999999999
mp-30949,Sr12 Si4 O4,20,Orthorhombic,62,515.312261967182,3.956389438884266,25.765613098359104,3.46920082,-4.5339772284999995,-1.443864567499999,True,0.4234
mp-3349,Sr3 Ti2 O7,12,Tetragonal,139,155.59136359944824,5.022340116866562,12.965946966620686,2.91489648,-8.117861359999972,-3.4925284151388603,False,1.8404999999999991
mp-22391,Sr3 V2 O7,12,Tetragonal,139,149.4557598679317,5.296841036193913,12.454646655660975,3.73462449,-7.790599324166671,-2.9671973704166703,False,0.5565
mp-18498,Sr6 Y2 Rh2 O12,22,Trigonal,167,322.72653871445533,5.666750030748338,14.669388123384334,3.44904798,-7.334560195454546,-2.912882952727273,False,2.1512000000000002