material_id,composition,nsites,crystal_system,space_group,volume,density,density_atomic,efermi,energy_per_atom,formation_energy_per_atom,is_gap_direct,band_gap
mp-1226303,Cr2 Ag2 Sn2 Se8,14,Orthorhombic,74,344.2940031964618,5.733751722259656,24.59242879974727,3.2901851300000002,-5.016301467142857,-0.660701050863094,False,0.0041
mp-1204934,Cr6 As6 O24,36,Orthorhombic,74,460.30187013097736,4.132361842954727,12.786163059193816,3.29416529,-7.6525011222222155,-1.966665451805549,False,2.5028
mp-996996,Cr1 Au1 O2,4,Trigonal,166,48.13559510446606,9.692359562010237,12.033898776116516,4.07206235,-7.328451950000001,-1.6227390800000001,False,1.266
mp-7113,Cr1 Au1 S2,4,Trigonal,166,77.19535983715681,6.734894551140048,19.298839959289204,3.89808343,-6.060710884999999,-0.7597987337499971,False,0.5956
mp-21100,Cr4 B4 Pb4 O16,28,Orthorhombic,62,351.0023757428088,6.320502550494499,12.535799133671743,4.03824634,-8.032408749642856,-2.341418702380951,False,2.324799999999999
mp-27734,Cr6 Br18,24,Trigonal,148,667.6168781881327,4.353329389229361,27.817369924505527,0.3348448,-4.85837588875,-1.21740412,False,1.2759
mp-18781,Cr2 Cd2 O8,12,Orthorhombic,63,173.0422774947916,4.383609980589499,14.420189791232632,-0.81490098,-6.698787463333333,-1.631303849999999,False,2.2913
mp-567504,Cr2 Cl6,8,Trigonal,148,185.64610736007532,2.832861229191603,23.205763420009415,0.42204462,-9.808210025,-1.425545254374999,False,1.5182
mp-22946,Cr2 Cl2 O2,6,Orthorhombic,59,98.0905816633612,3.5024825568005262,16.348430277226868,2.98741964,-7.507161146666667,-2.023977388333333,False,0.3688
mp-18788,Cr2 Co2 O8,12,Orthorhombic,63,127.07127556747008,4.571811239784179,10.58927296395584,1.4460536400000001,-7.661774015,-1.5653893133333332,False,0.506
mp-572465,Cr4 Cu4 P8 S24,40,Monoclinic,14,871.5265861415346,2.818959629495795,21.788164653538367,3.63911317,-5.59589435825,-0.6545584986785691,True,0.08760000000000001
mp-1226296,Cr1 Cu1 P2 Se6,10,Monoclinic,5,232.86326898685058,4.644036165367185,23.286326898685058,3.58576805,-5.055783608,-0.49991660233482005,False,0.639999999999999
mp-510625,Cr2 Cu2 O4,8,Trigonal,166,87.4933748108686,5.600365259676549,10.936671851358575,4.12260606,-7.696863687499987,-1.784819649999986,False,1.5391
mp-554340,Cr2 F4,6,Monoclinic,14,77.87729719445201,3.8377484113488993,12.979549532408669,2.87388051,-7.316467626666668,-2.822883553333335,False,0.006399999999999
mp-554855,Cr8 F32,40,Monoclinic,15,550.5704346216421,3.088170448140656,13.764260865541052,-2.78443802,-6.068441684000001,-2.60675029,False,1.5712000000000002
mp-639662,Cr4 F20,24,Orthorhombic,57,316.9246532315126,3.08059983917544,13.205193884646357,-3.52017803,-5.513520727499999,-2.309802503333333,False,1.4475
mp-1391848,Cr1 F6,7,Trigonal,148,87.35464078304243,3.155265675525009,12.479234397577489,-5.36751013,-5.08317507142857,-2.063723397142856,False,2.0863
mp-556308,Cr2 Hg2 Pb4 O12,20,Triclinic,2,362.82623906657903,6.983851287280495,18.14131195332895,1.591038559999999,-6.207699836000001,-1.500121868250001,True,2.0918
mp-559462,Cr4 Hg12 Pb8 O32,56,Monoclinic,14,998.9376942893235,7.953539364707387,17.83817311230935,1.51414663,-5.367643563214286,-1.253997437321429,False,1.9243000000000001
mp-567329,Cr4 Hg24 As16 Br28,72,Cubic,205,2005.7270072379818,7.002535640947163,27.85731954497197,1.26418003,-2.890910719722222,-0.577010965833335,False,1.143599999999999
mp-19155,Cr4 Hg4 O16,24,Monoclinic,14,341.2187230459051,6.162611441788328,14.217446793579379,-0.64870843,-6.258753055833334,-1.299659134583334,False,1.931
mp-1213805,Cr6 I18,24,Trigonal,151,872.8717033277052,4.93908355446768,36.36965430532105,2.23481613,-4.279313184583334,-0.723041855833334,False,1.159
mp-1213761,Cr4 Ni8 B4 O20,36,Orthorhombic,55,345.571928112693,5.001067726576651,9.599220225352584,4.0602231,-7.889912964166667,-2.041855450185186,False,2.7366
mp-1213740,Cr2 Ni2 Ag4 F14,22,Orthorhombic,74,303.33372739856355,5.029945735734276,13.787896699934707,0.36047255,-5.330780493181819,-2.192959935757575,False,1.657399999999999
mp-19177,Cr2 O4,6,Tetragonal,136,56.64882570127859,4.924261398838221,9.441470950213098,3.07056539,-8.56402402166665,-2.04770086166665,False,0.041999999999999
mp-554745,Cr4 P8 Pb20 O52,84,Orthorhombic,62,1384.3927136987327,6.515219166859519,16.480865639270625,2.8108685600000003,-7.014267070952381,-2.091851693061223,True,2.1886
mp-775489,Cr1 P6 W3 O24,34,Trigonal,146,486.5250312381382,4.004694264689673,14.309559742298182,0.8974098500000001,-8.403911549411765,-2.528283801407563,False,2.0678
mp-19401,Cr6 P6 O24,36,Orthorhombic,74,424.8924026285614,3.44621665146685,11.802566739682259,1.33503997,-8.406233216666667,-2.59617238077381,False,2.4649
mp-22373,Cr2 Pb4 O10,16,Monoclinic,12,259.4046822018297,6.995302325073303,16.212792637614356,2.42606167,-6.92350462375,-1.696236294374999,False,1.8544
mp-19146,Cr4 Pb4 O16,24,Monoclinic,14,351.5830524611216,6.105820643767765,14.649293852546734,1.51261702,-7.250637917500001,-1.7243814908333341,False,2.0522
mp-1226278,Cr2 Sb6 Pb8 O26,42,Trigonal,160,600.0174652548795,8.048223118402012,14.286130125116179,5.67146581,-6.6932785740476195,-1.873557977142856,False,1.1067
mp-557145,Cr4 Sb4 F40,48,Monoclinic,14,647.7525718663376,3.729848250766194,13.494845247215366,-3.33186728,-5.204493809791667,-2.461112771458333,False,1.2929
mp-33857,Cr4 Sb4 O16,24,Orthorhombic,65,258.5959349276951,6.106813816529397,10.774830621987297,5.25029396,-7.715396126249992,-2.119747337916659,True,0.8623000000000001
mp-1226180,Cr4 Sn4 Sb4 O24,36,Tetragonal,102,422.34774656217957,6.109251557842843,11.731881848949433,5.76535206,-7.401365593888889,-2.125878194444444,True,0.9006000000000001
mp-540922,Cr8 Te24,32,Monoclinic,14,980.178041868436,5.892773591859179,30.630563808388626,5.09838911,-5.221263020624999,-0.45052173312499805,False,0.1806
mp-569897,Cs4 B24 Br24,52,Trigonal,148,1389.9242849520163,3.236174850035409,26.729313172154157,-0.5957959700000001,-4.859858522884617,-0.9517041070888611,True,2.5614
mp-640353,Cs4 B24 I24,52,Trigonal,148,1723.522361437337,3.6965837838665463,33.14466079687186,1.14412692,-4.466308150192308,-0.610277082088859,False,1.687599999999999
mp-672338,Cs4 Bi16 Te24,44,Monoclinic,8,1683.9834903083658,6.841121411042867,38.27235205246286,4.18990574,-3.806466908409091,-0.5948350747413801,True,0.848399999999999
mp-1214012,Cs4 Nb24 Cl60,88,Orthorhombic,51,2430.086442209112,3.340472295759264,27.614618661467183,1.8494504900000002,-13.593245714090909,-1.511450970340909,True,0.9670000000000001
mp-8890,Cs2 Sb4 S8,14,Triclinic,2,416.92416852421564,4.020155090509941,29.780297751729687,2.7918260200000002,-16.138279459285716,-0.615267918035714,False,1.4413
mp-3312,Cs2 Sb4 Se8,14,Triclinic,2,459.17235089968534,5.00698191032234,32.798025064263236,2.64755886,-19.7112777,-0.6016597880357121,False,1.121999999999999
mp-561786,Cs2 Te4 O12,18,Trigonal,166,282.38590256410885,5.693414791560695,15.688105698006048,3.95949779,-5.743449907777777,-1.645410420332056,False,0.361699999999999
mp-1199790,Cs20 P8 Pd2 Se32,62,Tetragonal,131,2434.859158822596,3.85012225735223,39.27192191649348,1.05513827,-4.033378741129033,-1.070277603794295,True,1.253099999999999
mp-581173,Cs40 Si28 O36,104,Monoclinic,13,3016.8089549041724,3.676089722947988,29.00777841254012,2.6043393200000002,-5.347066002788461,-1.824425581309681,False,1.415
mp-1199833,Cs40 Tl24 Si4 O16,84,Monoclinic,14,3525.6430789068554,4.987655485524905,41.9719414155578,2.82916105,-3.331216337619048,-1.020465363645323,True,0.19229999999999903
mp-582185,Cs24 Nb2 In12 As18,56,Triclinic,2,2190.2563769065296,4.626181581622576,39.11172101618803,3.07763058,-3.265248400892857,-0.42299193172721705,False,0.8548
mp-1226383,Cs12 Sn2 As6 O1,21,Trigonal,164,858.5754052332359,4.444118237721708,40.884543106344566,2.4446954,-2.980208571904762,-0.509562345517242,True,0.558
mp-1213727,Cs8 P12 Se24,44,Monoclinic,14,1485.8630431433032,3.7214353238852533,33.76961461689326,1.10287979,-15.449594487954545,-0.623003913254869,False,1.3135
mp-1113578,Cs2 Ag1 As1 Br6,10,Cubic,225,329.5238874509548,4.676508544950792,32.95238874509548,0.53278941,-3.237336977000001,-1.322267520847702,False,1.116099999999999
mp-561622,Cs4 Ag2 As2 S8,16,Triclinic,2,514.034123624775,3.7269888928444,32.12713272654844,1.35340816,-4.114436471249999,-0.8791297685596251,False,1.5615
mp-567776,Cs2 Ag1 Au1 Cl6,10,Tetragonal,139,317.7330697716583,4.094021383970185,31.773306977165827,0.34103023,-3.349867614,-1.4474644520977011,False,0.448
mp-1078258,Cs2 Ag1 Bi1 Cl6,10,Cubic,225,315.56449890628505,4.185373900842128,31.556449890628507,0.91825946,-18.209052158,-1.510083130500001,False,1.8663
mp-1114309,Cs2 Ag1 Bi1 F6,10,Cubic,225,204.2280944748073,5.664325546689569,20.42280944748073,0.74002604,-17.355115215999998,-2.471992757000001,False,2.7645
mp-640052,Cs8 Ag4 Br12,24,Orthorhombic,62,954.8402767144339,4.266933081078726,39.78501152976808,-0.62516138,-3.193847800416665,-1.598892396412833,True,2.7333
mp-510565,Cs4 Ag2 F8,14,Orthorhombic,64,295.84737261545826,5.047867124843512,21.13195518681845,-0.09037583,-14.314762894285716,-2.303777902142857,False,0.185
mp-540881,Cs8 Ag4 I12,24,Orthorhombic,62,1143.3218513580696,4.382661764847718,47.6384104732529,1.29299844,-2.859399317083335,-1.320910873079503,True,2.8367
mp-1113226,Cs2 Ag1 Mo1 F6,10,Cubic,225,193.31021872340986,5.013218747467758,19.331021872340987,3.32408558,-5.301386422999999,-2.602620705097701,True,2.7943000000000002
mp-1112940,Cs2 Ag1 Sb1 Cl6,10,Cubic,225,319.4637457188904,3.680926402161937,31.946374571889038,1.2859706800000001,-3.639041657,-1.651126571097701,False,1.662399999999999
mp-572149,Cs6 Al3 N15 O45,69,Trigonal,152,1124.8260407539904,2.6697490454414803,16.301826677594065,-0.95439705,-6.62519045594203,-1.343784596346828,False,2.917
mp-989535,Cs2 Al1 In1 H6,10,Cubic,225,172.94112924526445,3.971845269183418,17.294112924526445,2.96228911,-3.041665797,-0.17249546234770102,False,0.610799999999999
mp-989575,Cs2 Al1 Tl1 H6,10,Cubic,225,177.26901688792574,4.713864274601881,17.726901688792573,2.41905745,-3.036655143,-0.20625497101436802,False,1.136199999999999
mp-8857,Cs4 As4 Pd2,10,Orthorhombic,63,344.7728639149832,5.028959850122407,34.47728639149832,2.48739206,-3.770344956999997,-0.503128553862067,False,0.9487999999999991
mp-1206558,Cs4 As4 Pt2,10,Orthorhombic,63,346.07304178900176,5.86092736711592,34.60730417890018,2.64276385,-3.938593576000005,-0.493126870862074,False,0.9559000000000001
mp-15557,Cs4 As6,10,Orthorhombic,69,405.2072893085265,4.020757487728385,40.520728930852655,2.12090482,-3.597984170999999,-0.43271962336206904,False,0.447499999999999
mp-558846,Cs8 As16 Pd12 O56,92,Tetragonal,85,1693.0675841651373,4.349787065866467,18.4029085235341,2.02889406,-6.1211497029347814,-1.542560799861318,False,0.3336
mp-650280,Cs16 As64 S104,184,Orthorhombic,60,5496.0760315406815,3.098732601143714,29.869978432286313,2.29987,-4.662930996086957,-0.620513179643928,True,1.5193999999999992
mp-29194,Cs4 Au4 Se6,14,Monoclinic,15,493.59114014673435,6.032844305183754,35.25651001048102,1.01520537,-28.550734549285714,-0.7905192645982141,False,1.4734
mp-1080693,Cs4 Bi4 Pd2,10,Orthorhombic,63,418.889220176153,6.264874487394674,41.8889220176153,2.46766711,-38.528509169,-0.49212774900000206,False,0.454
mp-555117,Cs16 Bi32 O56,104,Monoclinic,15,2228.4177044629523,7.2354236305397635,21.42709331214377,2.03975464,-5.678526195769232,-1.677617009946951,False,2.6314
mp-1229208,Cs4 Bi8 Se14,26,Monoclinic,11,882.7701787054336,6.224231589750629,33.952699180978215,2.68258692,-30.320396436538463,-0.750633159879809,False,0.7744999999999991
mp-989543,Cs2 Br1 Cl6 F1,10,Cubic,225,285.5002681150682,3.358481061618281,28.550026811506818,0.3376384,-2.846951419,-1.201150333931035,True,0.9489000000000001
mp-1029699,Cs6 C3 N6,15,Triclinic,2,439.1488572688642,3.46933138960259,29.276590484590947,0.91762281,-6.116103413333334,-0.571868188695403,True,2.2806
mp-2032711,Cs6 C3 N6,15,Orthorhombic,71,425.5774300636637,3.579966435257302,28.371828670910915,0.84553405,-16.256492928,-0.5716185490000001,True,2.6868
mp-567386,Cs4 Cd6 Te8,18,Orthorhombic,72,709.9476291487296,5.20860138076516,39.4415349527072,1.87569362,-24.458593343333334,-0.880730419999998,True,1.558699999999999
mp-559668,Cs8 Cd4 Bi8 S20,40,Orthorhombic,62,1277.750319473954,4.972234044340265,31.94375798684885,2.02891926,-4.114322334500001,-0.9895391556810341,False,1.7308999999999992
mp-1194601,Cs8 Cd4 Ge12 S32,56,Orthorhombic,19,1702.0207228498666,3.327523297109289,30.393227193747617,1.02337219,-4.527450024642857,-0.9737410649507381,True,2.3475
mp-1103539,Cs4 Cd2 I8,14,Monoclinic,11,710.1223034851463,4.142868237004095,50.72302167751045,-0.11183489,-2.653702570714281,-1.3862717434729022,True,2.8822
mp-1195716,Cs8 Cd4 Sn12 Se32,56,Orthorhombic,19,2143.949134604705,4.232095446425046,38.28480597508401,2.19859378,-3.982134323571429,-0.926993415218596,False,1.371999999999999
mp-623165,Cs2 Ce10 Os2 I17,31,Monoclinic,12,1277.729779530968,5.464571794849264,41.21708966228929,4.73921815,-4.911636366129033,-1.377816909493881,True,0.019600000000000003
mp-1113262,Cs2 Ce1 Ag1 Br6,10,Cubic,225,389.0675918025792,4.239055522234857,38.90675918025792,2.34775637,-3.928700945,-1.8869487550977002,False,2.6247
mp-1101094,Cs2 Ce1 Cl6,9,Trigonal,164,299.0731574270161,3.434892117871162,33.23035082522401,-0.78933914,-15.384879616666666,-2.276860933888886,False,1.823599999999999
mp-768223,Cs4 Ce2 O6,12,Orthorhombic,36,288.94728061000484,5.21728646540002,24.078940050833737,1.78295201,-6.435797818333332,-2.669666480718389,False,2.2437
mp-1214168,Cs8 Co4 Br16,28,Orthorhombic,62,1078.2230041998962,3.969439022717296,38.507964435710576,0.33554924,-3.7407087674999993,-1.5268290531157631,False,0.6984
mp-1193242,Cs8 Co4 Cl16,28,Orthorhombic,62,938.3089586502355,3.3026845653583052,33.51103423750841,0.87792593,-14.314545649285716,-1.734418117857144,True,0.732699999999999
mp-542168,Cs8 Co4 Si4 O16,32,Orthorhombic,36,622.4154826450367,4.448204563854539,19.450483832657397,1.95835054,-6.569312528125001,-2.298495789288794,False,2.8661000000000003
mp-560716,Cs6 Cr3 N15 O45,69,Trigonal,154,1155.2856033862106,2.707223398905994,16.743269614292906,-1.21559423,-6.786677003623188,-1.248424550984508,False,2.7358000000000002
mp-1204482,Cs4 Cr2 H8 F20,34,Monoclinic,14,533.8113340397434,3.184277640455859,15.7003333541101,-1.24754616,-5.037194658529412,-2.437889239959432,False,1.9123
mp-1192085,Cs4 Cu4 Sb4 Se10,22,Triclinic,2,703.0236984251383,4.871488463243995,31.955622655688103,3.05044101,-4.009708953636363,-0.7595336491844631,False,0.8173
mp-556177,Cs4 Cu4 Si16 O38,62,Monoclinic,11,1035.863191662842,2.9546606910993902,16.707470833271643,2.26444925,-7.624437283548387,-2.868689805622913,False,0.7552000000000001
mp-638252,Cs4 Cu6 P8 O28,46,Monoclinic,14,677.8839460967719,3.940587807425369,14.736607523842867,2.60423178,-6.807883456521739,-2.240625920777468,True,0.7549
mp-1194546,Cs4 Cu6 Sn2 F24,36,Monoclinic,14,635.1927786672729,4.199181611164831,17.644243851868694,-0.31030371,-4.724984985,-2.442241901350574,True,0.7047
mp-1192723,Cs8 Cu4 Br16,28,Orthorhombic,62,1063.6126432811518,4.052771906134186,37.986165831469705,-0.27461189,-3.26311809142857,-1.482696955615763,True,0.1547
mp-616439,Cs8 Cu4 Cl16,28,Orthorhombic,62,925.403315497216,3.381852468538517,33.05011841061486,-0.17257011,-13.820723739285715,-1.581658369285715,False,0.376299999999999
mp-2042825,Cs2 Cu1 F6,9,Tetragonal,139,175.3058622806965,4.199491907094618,19.47842914229961,-2.45481091,-11.05874417111111,-2.189869759999999,True,0.2646
mp-572921,Cs4 Ga6 As10 O36,56,Monoclinic,15,910.9865396682974,4.147133113113594,16.267616779791023,0.10526243,-6.339575855357144,-1.9354989281896562,False,2.4875
mp-1113583,Cs2 Ga1 Ag1 F6,10,Cubic,225,180.04702882759906,5.140723875863037,18.004702882759908,-0.32040701,-4.605678024,-2.688667714847702,False,2.7308
mp-29372,Cs16 Ga8 Sb16,40,Orthorhombic,62,1741.503230751175,4.417065036450789,43.53758076877937,2.73638038,-23.184474280750003,-0.5700115987500021,False,1.2101
mp-1213731,Cs8 Gd4 Cl20,32,Orthorhombic,62,1116.3248171282366,3.571951821393,34.885150535257395,-1.0980864,-17.9717973725,-2.424784149062498,False,2.9185
mp-1226191,Cs2 Ge1 Te3 O12,18,Trigonal,166,254.04753300353048,5.9692642142890024,14.11375183352947,3.52881883,-5.908610371666662,-1.728364108572792,False,0.6737000000000001
mp-572598,Cs8 Ge8 S20,36,Monoclinic,15,1182.6564334209152,3.20924456071087,32.85156759502542,0.47916424,-4.599526872499999,-1.071325907145593,False,2.6987
mp-27882,Cs2 Ge1 Cl6,9,Cubic,225,276.3428926846074,3.311963221357625,30.70476585384527,-0.78887284,-3.754591629999996,-1.8067872082567011,True,2.215
mp-1102254,Cs4 Ge2 Se6,12,Monoclinic,12,467.19131035530955,4.089799706486895,38.9326091962758,0.59194268,-3.9533606825,-1.132241111056933,False,1.655199999999999
mp-1104024,Cs4 Ge2 Se8,14,Monoclinic,12,522.7366372879917,4.156875677655437,37.33833123485655,0.87333585,-3.966477747857143,-1.048959332669335,False,1.6824
mp-662549,Cs8 Ge4 Te16,28,Orthorhombic,62,1165.3329939093726,4.838274020715621,41.61903549676331,2.95720305,-3.536096424285712,-0.820066914425285,True,0.537999999999999
mp-1183735,Cs4 H8 Pd2,14,Tetragonal,136,353.22225028869985,3.5377094847915913,25.230160734907134,2.15106083,-3.307548602857143,-0.368048216330049,True,2.9382
mp-29398,Cs2 Hf1 I6,9,Cubic,225,410.29224881836404,4.8798338131387595,45.588027646484896,1.04211129,-3.833017376666662,-1.508881836590033,False,2.2062
mp-1202194,Cs4 Hg2 B18 Se18,42,Triclinic,2,1098.6372228533955,3.8522109944377183,26.158029115557035,2.61715112,-5.110517074761905,-0.6484524835906721,False,1.8712
mp-1213712,Cs2 Hg3 Ge2 S8,15,Triclinic,2,463.84105152666194,4.544351075046566,30.92273676844413,2.57156246,-3.802447701333333,-0.7959208011206901,True,1.7759
mp-540574,Cs2 Hg3 I8,13,Monoclinic,8,624.3278026401472,5.007770937421215,48.02521558770363,0.048781160000000004,-2.095785740769228,-0.94678018898541,True,1.731399999999999
mp-1105419,Cs4 Hg6 S8,18,Orthorhombic,72,544.970994167751,6.068699958622521,30.276166342652832,2.86911037,-2.922486385555553,-0.7782186607567051,True,1.732499999999999
mp-1106156,Cs4 Hg6 Se8,18,Orthorhombic,72,628.728052544469,6.251086252754691,34.929336252470506,0.97248435,-2.664184333888889,-0.805449093465041,True,1.195399999999999
mp-17905,Cs4 Hg12 S14,30,Tetragonal,102,846.7799738595783,6.643120908204285,28.22599912865261,1.39468435,-2.8026994033333343,-0.626532447454026,True,0.6230999999999991
mp-1183950,Cs8 Hg4 Br16,28,Monoclinic,14,1266.0199165470428,4.123826991056265,45.21499701953724,1.11451697,-2.805998435714285,-1.566939390258622,True,2.4673
mp-2759442,Cs8 Hg4 Br16,28,Monoclinic,11,1169.5428764358232,4.464006586044972,41.769388444136546,1.53895403,-23.236419705714287,-1.433529481071429,True,2.8128
mp-8963,Cs2 Hg1 F4,7,Tetragonal,139,156.85104863736953,5.742182103010433,22.40729266248136,-0.90637568,-3.836908644285716,-2.439617690258624,False,2.0818
mp-28421,Cs4 Hg2 I8,14,Monoclinic,11,710.8463111623757,4.550621468253392,50.77473651159827,0.12535501,-2.43557489642857,-1.261049519544335,True,2.0411
mp-7232,Cs2 Hg1 O2,5,Tetragonal,139,143.1413728166855,5.781781763415479,28.6282745633371,0.69772663,-3.6893578160000002,-1.285047978362071,False,2.068899999999999
mp-1185537,Cs2 Hg1 Te1,4,Cubic,225,182.94315596869177,5.391629444308978,45.73578899217294,1.2639843,-2.170204044999998,-0.8529707771192531,False,1.8046000000000002
mp-572805,Cs8 I16 O44,68,Monoclinic,14,1297.725728713874,4.85943244250554,19.08420189285109,1.36523668,-4.820363590294117,-1.153329669371196,False,2.984999999999999
mp-989516,Cs2 I1 Cl6 F1,10,Cubic,225,303.8270424988887,3.412775082845865,30.38270424988887,1.10919047,-3.006592495,-1.372084801931035,True,1.126099999999999
mp-21835,Cs16 In16 Sb24,56,Monoclinic,14,2320.691579901818,4.927050752669266,41.44092106967532,3.29856404,-3.248075457321428,-0.43074597912766704,False,1.267199999999999
mp-2049132,Cs4 In6,10,Tetragonal,139,409.05736453607915,4.954653315600731,40.905736453607915,4.04744778,-23.889140269000002,-0.298604841000002,False,0.21629999999999902