material_id,composition,nsites,crystal_system,space_group,volume,density,density_atomic,efermi,energy_per_atom,formation_energy_per_atom,is_gap_direct,band_gap
mp-7438,K2 Zn2 Sb2,6,Hexagonal,194,187.32121787150615,4.011565752277277,31.220202978584357,2.19630567,-14.055861313333333,-0.5108005562499991,True,0.44300000000000006
mp-1211525,K2 Zr12 B2 I28,44,Orthorhombic,64,1548.8185494394845,5.090305847626523,35.2004215781701,3.61231651,-4.929936548636363,-1.273884644837121,False,0.7154
mp-570066,K4 Zr24 C4 Cl60,92,Orthorhombic,51,2646.6165899038806,2.836558897282025,28.767571629390005,1.93174416,-6.084274127173914,-2.198431475206522,False,1.1945000000000001
mp-1212009,K2 Zr12 Mn2 Cl28,44,Orthorhombic,64,1170.1281189523013,3.229103497671395,26.593820885279573,3.629024,-6.0205581725,-2.045140536371866,True,1.2413
mp-9317,K2 Zr2 Cu2 S6,12,Orthorhombic,63,259.6770138447838,3.70969639788617,21.639751153731982,3.54455524,-5.872632219166668,-1.507072931625,True,0.592499999999999
mp-9318,K2 Zr2 Cu2 Se6,12,Orthorhombic,63,299.22803643578885,4.7807978726955085,24.935669702982405,3.16383249,-5.387543194999999,-1.343207952380207,True,0.214399999999999
mp-554835,K4 Zr4 V4 F28,40,Orthorhombic,52,606.3439877648532,3.442460166548689,15.15859969412133,1.24758394,-6.7855959402499995,-3.569601635475,True,2.4489
mp-30009,Kr1 F2,3,Tetragonal,139,54.722214021037864,3.695848893438977,18.24073800701262,-3.29453718,-6.288076266666667,-0.009234352222222,False,2.92
mp-568896,La3 Al9 Br36,48,Trigonal,152,1917.1384854063153,3.062805687899041,39.94038511263157,-1.10505113,-4.008081016875,-1.7695752034375,False,2.6085000000000003
mp-28993,La2 Au6 F24,32,Trigonal,167,528.8944924429275,6.014209331879069,16.527952888841483,-1.81488292,-4.502581305625,-2.1448387053125,True,2.1698
mp-1223628,La2 Cd6 As6,14,Orthorhombic,40,371.11497855255163,6.272327063068824,26.50821275375369,3.7768422900000003,-3.631759127142857,-0.5137012310714281,True,0.208299999999999
mp-973441,La2 Er6 S12,20,Monoclinic,11,469.0633073454251,5.898348304295043,23.453165367271254,4.16375228,-6.767322989000002,-2.420390894999999,True,1.060299999999999
mp-1188862,La2 Ho6 S12,20,Monoclinic,11,473.9097799716983,5.789071453579397,23.695488998584914,4.09952509,-20.0958041335,-2.435923489187496,True,1.0735000000000001
mp-1106254,La2 Lu6 S12,20,Monoclinic,11,455.12307354962684,6.247750420700158,22.756153677481343,4.12486402,-21.6370939265,-2.417652401687496,True,1.0627
mp-31418,La2 Sb6 O18,26,Orthorhombic,63,343.7715881455653,6.261880652980352,13.221984159444819,4.9498169999999995,-7.0693715188461415,-2.311320759615372,True,1.486399999999999
mp-1223306,La1 Tl9 Te6,16,Tetragonal,87,550.3457839588506,8.279239869901009,34.39661149742816,4.94098536,-3.486718218124998,-0.665524998437502,False,0.8190000000000001
mp-1106294,La2 Tm6 S12,20,Monoclinic,11,463.7135945299712,6.002388772336429,23.18567972649856,4.17546631,-20.764463313,-2.432671356187498,True,1.0688
mp-1211293,La2 Y6 S12,20,Monoclinic,11,482.13392161942755,4.119286934675758,24.10669608097138,4.22114704,-16.328115983500002,-2.438558225687501,True,1.0838
mp-866648,La4 Zn12 As12,28,Orthorhombic,62,598.1160089343524,6.217732187266921,21.36128603336973,4.85533299,-3.826965708214286,-0.5804506321428581,False,0.177399999999999
mp-1211229,La2 Zn6 P6,14,Hexagonal,194,286.5708143537166,4.960728370374229,20.46934388240833,4.88716098,-12.664456215,-0.7383395069897961,False,0.23620000000000002
mp-758316,La10 Bi8 O27,45,Triclinic,1,813.8934758700526,7.126321428810995,18.08652168600117,4.90489961,-7.651509982666665,-2.894281256777777,False,1.4298
mp-561194,La40 S56 O4,100,Tetragonal,142,2421.4590613806618,5.085495543118654,24.214590613806617,8.00758125,-7.099062112900001,-2.609259472900001,True,1.9025999999999992
mp-558229,La20 S38,58,Tetragonal,86,1373.2782914419165,4.83257928697075,23.677211921412354,6.71863834,-17.72618154086207,-2.205051037015086,True,0.44219999999999904
mp-558535,La40 Se56 O4,100,Tetragonal,142,2710.9276493222596,6.151065714440611,27.109276493222595,7.03208033,-6.5687988521000005,-2.4387671424125,True,1.523499999999999
mp-8866,La20 Se38,58,Tetragonal,86,1550.7739933968655,6.187602764424877,26.737482644773543,5.63906706,-21.721661477758623,-2.088301255765087,True,0.772
mp-1195612,La22 Mn6 C36,64,Trigonal,148,1070.7422248489495,5.920965941258501,16.730347263264836,8.27362131,-8.0211950503125,-0.27437933480603505,False,0.5335999999999991
mp-571323,La24 C12 I34,70,Monoclinic,15,2589.194378350032,4.997668850385296,36.988491119286174,5.28715197,-5.4323899,-1.4177529665714301,False,0.025599999999999002
mp-1224120,La12 Mn3 Al4 Se28,47,Triclinic,1,1246.1400461196638,5.530713865270069,26.51361800254604,4.98222915,-6.095907998297872,-1.8493982997748541,False,0.063499999999999
mp-1223487,La12 Si4 Sn1 S28,45,Triclinic,1,1091.5113772147936,4.253214092032797,24.255808382550967,6.63357434,-6.475810718666667,-2.013210782555556,False,1.4132
mp-866690,La17 Al4 Si9 N33,63,Cubic,216,922.0460541051966,5.734714342292482,14.635651652463439,7.63636071,-8.272267428730158,-1.5597999373015892,True,1.8766999999999991
mp-662600,La40 Ti22 S88 O12,162,Orthorhombic,59,3451.331457316513,4.629916579885634,21.30451516862045,6.90995614,-7.298638197037037,-2.393130279958848,False,0.285099999999999
mp-3817,La8 Au20 F84,112,Tetragonal,92,1944.235866065022,5.676613183410746,17.35924880415198,-1.49823495,-4.634853040267857,-2.262270037232142,False,1.7131
mp-567756,La4 C2 N6 Cl2,14,Orthorhombic,65,257.8363363271979,4.730964404898376,18.41688116622842,5.41103679,-8.195068625000001,-1.628774948214287,False,1.8792
mp-1223259,La2 Co1 Ni1 O6,10,Trigonal,148,117.11177298546602,6.968088919819693,11.711177298546602,6.5738835,-7.820092079,-2.572758715,False,0.9971999999999991
mp-556104,La4 Cr2 O12,18,Monoclinic,15,255.6134290078515,5.532285604532543,14.20074605599175,4.00014545,-8.492093074444446,-3.024001106666667,True,2.1672000000000002
mp-18267,La4 Cu2 Se8 O24,38,Monoclinic,14,623.4618789039978,4.523493050464531,16.406891550105204,3.17862522,-6.640949849210526,-2.044613067598685,True,0.6129
mp-1195675,La8 Cu4 Bi4 S20,36,Orthorhombic,62,820.9318868882153,5.749965850173201,22.803663524672647,6.43758182,-20.357170080555555,-1.577878351006944,True,1.0575
mp-31273,La8 Cu4 S16,28,Monoclinic,14,619.7423913699287,5.033170466092383,22.13365683464031,6.62183505,-16.526724755714287,-1.8872457930357132,False,1.6332
mp-568036,La8 Ga4 N12,24,Monoclinic,15,373.54091567456453,6.926895285928178,15.564204819773522,7.25571578,-17.692561949166667,-1.306130553541666,False,1.8032
mp-637213,La2 Ge1 I2,5,Trigonal,166,194.84610566921782,5.149690488669319,38.96922113384356,4.76531936,-4.957038450000001,-1.448424991000002,False,0.3859
mp-622086,La8 Ge4 S20,32,Monoclinic,14,766.4119959928258,4.426670809350311,23.950374874775807,4.82574273,-6.231810738125006,-1.8334557503125062,False,1.9676
mp-1197947,La8 Hf4 S20,32,Orthorhombic,62,699.7186768128346,5.853389350776672,21.86620865040108,6.29898096,-20.3768479246875,-2.274851523320311,True,1.0901
mp-1197516,La8 Hf4 Se20,32,Orthorhombic,62,798.1974238498874,7.082389986544339,24.94366949530898,6.3043841,-24.08603389625,-2.061186776914063,True,0.802999999999999
mp-779287,La4 Hg2 O8,14,Monoclinic,12,246.99143833018826,7.293159402009271,17.642245595013446,3.70532045,-7.291326411428569,-3.009393516071427,False,2.254099999999999
mp-30282,La4 I10,14,Monoclinic,11,592.5353062242065,5.113501436592766,42.323950444586174,4.84889999,-4.276749706428569,-1.777881522857142,False,0.1718
mp-1224037,La8 In4 Cu4 S20,36,Orthorhombic,62,781.434946943568,5.240217315238577,21.706526303988,7.55720507,-5.867325647777778,-1.70930426324074,True,0.8944999999999991
mp-866666,La16 Mg8 Ni16 H64,104,Monoclinic,14,1085.1217974159072,5.234365248073081,10.433863436691414,6.98932159,-4.40688722923077,-0.543495760384615,False,0.6837999999999991
mp-1391671,La2 Mg1 Ni1 O6,10,Trigonal,148,116.10369197450987,6.5333303723335305,11.610369197450987,7.79694159,-7.510339146999999,-2.8133004534999992,False,1.364099999999999
mp-1411395,La2 Mg1 V1 O6,10,Trigonal,148,122.30934305032888,6.096602481299491,12.230934305032887,6.68417595,-8.393823914,-3.366408281500001,False,1.7390999999999992
mp-1196301,La16 Mn8 Se16 O16,56,Orthorhombic,33,1197.5210851114016,5.798045890874985,21.384305091275028,6.89090294,-7.866225337678571,-2.734543270909791,True,1.6501000000000001
mp-2903153,La16 Mn8 Se16 O16,56,Orthorhombic,62,1169.0434550830535,5.939284956924921,20.875775983625953,6.02095078,-19.126534231249998,-2.7359547616225353,False,1.2042
mp-1079069,La2 Mn2 Se2 O3,9,Tetragonal,139,166.47818962876065,5.920923796391335,18.49757662541785,6.3771668,-8.14793626,-2.58885284172773,False,0.619799999999999
mp-19300,La8 Mo4 O24,36,Tetragonal,142,551.2362760159293,5.660250193540541,15.31211877822026,4.08856799,-8.778349266111112,-3.17774589388889,False,2.792399999999999
mp-560340,La4 Pd4 O10,18,Tetragonal,84,252.7100317220284,7.499371443133834,14.039446206779354,5.39637036,-7.569045280555558,-2.572202741111114,False,1.179
mp-755026,La4 Pt4 O14,22,Cubic,227,293.0172795743511,8.840287703254955,13.318967253379595,5.82212255,-7.521595840000001,-2.371595123181819,False,0.8203
mp-27539,La4 Re2 O10,16,Tetragonal,87,241.29560643390204,7.487563275890076,15.080975402118877,6.03589164,-9.14426021250001,-3.26176853218751,False,0.7077
mp-7475,La8 S12,20,Orthorhombic,62,504.1879526114183,4.927142517339004,25.209397630570916,6.01959917,-19.2266399765,-2.507728445187498,True,1.0358
mp-1202647,La8 Sb4 S20 Br4,36,Orthorhombic,62,896.4705815210842,4.740424580919051,24.901960597807896,5.05222471,-5.774934892222222,-1.7382949119444442,False,1.8640999999999992
mp-32798,La16 Se24,40,Tetragonal,122,1131.0472000690804,6.045119341034584,28.27618000172701,6.10857744,-22.82714325275,-2.342295032187499,False,1.58
mp-7233,La2 Se1 O2,5,Trigonal,164,103.64523915760147,6.22862512961434,20.729047831520294,5.73353796,-8.144214178000002,-3.491444638468752,False,2.4067
mp-1223272,La4 Si4 Pb2 Se16,26,Monoclinic,9,748.6424329019475,5.202972702332375,28.79393972699798,3.49565341,-5.600498199615384,-1.569529802596153,False,1.9379
mp-866650,La8 Si16 C4 N24,52,Orthorhombic,62,654.4647315708074,4.934478096096375,12.585860222515528,7.68335677,-8.318477115,-1.331429554038461,True,2.335599999999999
mp-558724,La8 Si4 S20,32,Monoclinic,14,753.3781172336312,4.110440147368529,23.543066163550975,5.17325871,-15.463044586875,-1.908254534882813,False,2.3415
mp-17834,La8 Si4 Se4 O16,32,Orthorhombic,57,517.9196214101744,5.756411904935,16.18498816906795,6.65372721,-8.2776856671875,-3.4545496999804692,False,2.2089
mp-4086,La4 Sn4 O14,22,Cubic,227,308.7057842260936,6.747748559342507,14.032081101186073,5.65921909,-7.792445157272726,-3.0172737977272712,True,2.664499999999999
mp-560740,La8 Sn4 S12 O8,32,Orthorhombic,62,662.7600667866743,5.258671234163624,20.711252087083572,5.50681362,-7.016771352812501,-2.492698005625001,True,1.6742
mp-14880,La8 Ta12 S8 O32,60,Orthorhombic,58,912.9683281132031,7.368318653630333,15.21613880188672,7.00757799,-9.475412794,-3.253199193133334,False,0.796899999999999
mp-1211581,La8 Ta12 Se8 O32,60,Orthorhombic,58,936.4253327559488,7.849007434265373,15.607088879265813,6.82456411,-9.338082010833334,-3.201528155279167,False,0.893799999999999
mp-32755,La16 Te24,40,Tetragonal,122,1374.420027901538,6.38506570873069,34.360500697538455,7.08416663,-5.71780132175,-1.857414943749999,False,1.0395
mp-4547,La2 Te1 O2,5,Tetragonal,139,111.8634549980862,6.4930585363537645,22.37269099961724,6.89197655,-7.969214202000001,-3.386965779333334,False,2.028699999999999
mp-17350,La8 Te4 O24,36,Orthorhombic,19,542.1769783332608,6.142691479889501,15.060471620368354,4.7747779,-7.7484589591666655,-3.003671611018518,False,2.962399999999999
mp-1195982,La8 Th4 S20,32,Orthorhombic,62,779.4196602427781,5.711172890213989,24.356864382586817,5.98628024,-24.110126359375,-2.467649113007809,True,1.4485000000000001
mp-1198974,La8 Th4 Se20,32,Orthorhombic,62,880.3280493276335,6.825660080729948,27.510251541488547,5.33837822,-27.837582635,-2.272254670664061,True,1.118199999999999
mp-12192,La16 Ti16 O56,88,Orthorhombic,33,1113.5513532753469,5.792346189149735,12.653992650856214,4.97215789,-9.265711767500001,-3.784009469469697,False,2.928499999999999
mp-760513,La2 U1 O6,9,Orthorhombic,71,126.66568600345036,8.020941010490947,14.073965111494484,6.25113322,-9.542384695555556,-3.892252445555556,False,1.739799999999999
mp-1196943,La16 Zn8 Se16 O16,56,Orthorhombic,64,1198.6164064689565,5.90879751626913,21.403864401231367,4.49286028,-6.776733221964285,-2.773947109776785,True,2.4958
mp-1198687,La8 Zr4 S20,32,Orthorhombic,62,708.3562214576181,4.963733410030479,22.136131920550564,6.41587549,-7.180818636250002,-2.291879551562502,True,1.0739
mp-1200409,La8 Zr4 Se20,32,Orthorhombic,62,804.5109662754703,6.306329243346896,25.140967696108447,6.25728224,-21.3112533484375,-2.086609164726564,True,0.831199999999999
mp-617632,La6 Ag2 Ge2 S14,24,Hexagonal,173,565.5938356427667,4.824773562402956,23.566409818448616,5.07572514,-6.078800629583333,-1.808591977847221,False,1.9759000000000002
mp-542888,La6 Ag2 Sn2 S14,24,Hexagonal,173,577.1323219020185,4.9934203050112504,24.04718007925077,5.43572707,-6.012083989166666,-1.792996670763888,False,1.952299999999999
mp-17155,La6 Ag2 Sn2 Se14,24,Hexagonal,173,654.1947032613405,6.071675524819941,27.258112635889187,4.76824989,-5.519251862916666,-1.6749259302560762,False,1.300499999999999
mp-29990,La24 B16 N40,80,Monoclinic,14,1094.656771307993,6.169396209249174,13.683209641349913,7.73954792,-16.582901356625,-1.62582112,False,1.311299999999999
mp-2901816,La6 Be2 Ga2 S14,24,Hexagonal,186,552.1444028439232,4.33014629564862,23.006016785163467,5.05431923,-15.39586756375,-1.957527850598957,False,2.8155
mp-1105333,La6 Bi8 Au6,20,Cubic,220,561.2164304624004,10.909396923061644,28.06082152312002,6.81007638,-4.840770186500004,-0.8217897310000051,False,0.379299999999999
mp-569686,La24 C16 I24,64,Orthorhombic,20,1939.414888191947,5.626653071176087,30.303357627999173,6.80543312,-5.925598955000002,-1.195925186875003,True,0.032899999999999
mp-568591,La6 C2 I10,18,Triclinic,2,703.8913102336238,5.016590601993243,39.10507279075688,5.3588169,-5.069998776666662,-1.552582123055551,False,0.192
mp-1105594,La6 Cu6 Sb8,20,Cubic,220,483.80907749553427,7.512404196634495,24.190453874776715,8.33427923,-5.277253193,-0.9150885645000001,False,0.2826
mp-582767,La6 Cu2 Ge2 S14,24,Hexagonal,173,550.7093232937094,4.687889939090625,22.94622180390456,5.40482929,-6.224744392083333,-1.8498466577083321,False,1.7961
mp-510011,La6 Cu2 Ge2 Se14,24,Hexagonal,173,625.8645628899561,5.866857826990432,26.07769012041484,4.88918236,-5.688485245,-1.688348896367188,False,1.1936
mp-555681,La12 Cu4 S12 O8,36,Orthorhombic,62,697.9508796848467,5.790466558200168,19.387524435690185,7.34975515,-7.321053146388888,-2.741249957777777,True,0.9670000000000001
mp-504650,La6 Cu2 Si2 S14,24,Hexagonal,173,544.4353668320568,4.470127895084109,22.684806951335702,5.85216964,-6.38171537375,-1.939960124791666,False,1.5012999999999992
mp-568082,La6 Cu2 Si2 Se14,24,Hexagonal,173,620.0288409914599,5.683428254895907,25.83453504131083,5.02311509,-5.803865051666666,-1.736871188450521,False,1.5373
mp-510566,La6 Cu2 Sn2 S14,24,Hexagonal,173,566.9715489844135,4.823287465706129,23.62381454101723,5.83035675,-6.15910724625,-1.8353308452083321,False,1.869399999999999
mp-567753,La6 Cu2 Sn2 Se14,24,Hexagonal,173,639.0158618083319,5.985548571829735,26.625660908680498,5.00761194,-20.400134269166667,-1.649447434869789,False,1.2088
mp-780561,La12 Ga20 O48,80,Cubic,230,1043.3911689409726,6.094259937892628,13.042389611762157,3.88162645,-7.389292266375,-2.9230905920000003,True,2.8686
mp-561076,La12 Ga4 S20 O4,40,Orthorhombic,62,882.1899176050932,4.990060196658525,22.05474794012733,5.8809335,-6.741851051499999,-2.394263433499999,True,1.196499999999999
mp-540877,La12 In4 S24,40,Orthorhombic,18,972.0304331585062,4.946778302667944,24.300760828962655,6.47307232,-18.08328674525,-2.080994196437498,True,1.359499999999999
mp-645695,La12 Lu4 Se24,40,Orthorhombic,58,1093.9067230200994,6.469328209893499,27.347668075502487,5.415661959999999,-23.6356617525,-2.317303534104167,True,0.48449999999999904
mp-1190945,La6 Mg2 Al2 S14,24,Hexagonal,173,554.9005171057319,4.144358998349606,23.120854879405496,5.21468258,-6.247780240833333,-2.151731563125,False,2.295199999999999
mp-29150,La12 Mo4 O28,44,Orthorhombic,19,671.1010981725259,6.182433022789479,15.252297685739224,6.60898537,-8.856539365909091,-3.375684960454546,False,0.023600000000000003
mp-560349,La12 Nb4 O28,44,Orthorhombic,62,668.8564115883513,6.173055593612762,15.201282081553439,5.50903719,-9.13682392159091,-3.723637249772728,True,2.9341
mp-1227132,La6 Pb6 I26 O80,118,Trigonal,161,2060.7110719400653,5.363544632072687,17.46365315203445,3.15043011,-5.496804857627119,-1.366693557288136,True,2.9264
mp-1211495,La12 Pt4 I12,28,Cubic,214,1037.2648531864427,6.355591697481963,37.04517332808724,6.31329293,-5.127015113571429,-1.491130473571429,True,0.17930000000000001
mp-504831,La6 Re2 O16,24,Monoclinic,11,344.29346455707804,7.050490534122556,14.345561023211586,5.04040038,-8.869900379166667,-3.299915082291667,False,1.8714
mp-29824,La6 Ru2 I6,14,Monoclinic,11,526.3144965902167,5.6695913265133555,37.5938926135869,6.14991619,-5.386487685,-1.292993156428572,False,0.1048
mp-555129,La12 S12 N4,28,Orthorhombic,62,676.803681423427,5.171178175117708,24.17156005083668,6.1266809,-19.84687982464286,-2.351438605669642,False,1.3375
mp-1190030,La6 Sb8 Au6,20,Cubic,220,531.1001257137948,9.34639158699297,26.55500628568974,7.37456408,-5.073759053999998,-0.9591918264999991,False,0.5747999999999991
mp-1104307,La6 Sb2 O6,14,Monoclinic,12,310.0465078005047,6.282051092158205,22.14617912860748,8.49736046,-7.998697727142859,-3.172854074285716,False,0.7208999999999991
mp-1211549,La12 Sb4 O28,44,Orthorhombic,62,675.7369165897564,6.393816823824024,15.357657195221737,5.55216211,-8.241538868636363,-3.37128890590909,True,2.812900000000001
mp-560523,La6 Si4 S16 Br2,28,Monoclinic,15,689.6359884044637,3.897398731929145,24.629856728730847,4.2723382,-6.221707756785714,-1.9072448675,False,2.552
mp-556246,La6 Si4 S16 Cl2,28,Monoclinic,15,678.2461705001168,3.745190600528349,24.223077517861316,4.31444645,-6.2654264428571445,-1.935849534642859,True,2.6154
mp-23090,La6 Si4 S16 I2,28,Monoclinic,15,704.3642806556176,4.037511182736749,25.155867166272056,4.61274093,-6.163851481071428,-1.8574553003571421,False,2.507
mp-1019893,La6 Si12 N22,40,Tetragonal,100,503.81815365793386,4.873352368511046,12.595453841448347,7.24663818,-13.68518648925,-1.5705272108125001,False,2.9659
mp-17719,La6 Si2 Ag2 S14,24,Hexagonal,173,556.6065543573194,4.6368358212411795,23.191939764888307,5.31582187,-6.23421192125,-1.8971457549305542,False,1.9663
mp-6485,La6 Si2 Ag2 Se14,24,Hexagonal,173,632.1664101775979,5.807152774765752,26.340267090733246,4.69568614,-5.681573627083334,-1.719268846506076,False,1.6531
mp-1194197,La12 Si4 N16 F4,36,Orthorhombic,62,529.3011481927869,6.523267386014438,14.702809672021857,8.13757459,-8.181531475277776,-2.014831175277778,False,1.9716
mp-1198669,La12 Te16 Br4,32,Orthorhombic,62,1052.316491814316,6.356250214364645,32.88489036919737,6.66496257,-5.580079650312502,-1.952805722395835,True,0.053700000000000005
mp-554303,La6 U2 Cl6 O12,26,Hexagonal,176,451.59939762565375,6.303149371119259,17.369207600986684,5.47000548,-8.325936402692308,-3.608026729230769,True,1.577199999999999
mp-673814,La6 U4 O20,30,Triclinic,2,427.2536712591083,8.183254546829437,14.241789041970275,8.04876907,-9.703220831333335,-3.911857405666667,False,0.1081
mp-1194534,La6 V2 H6 O16,30,Monoclinic,11,385.06542139360175,5.1634157486241214,12.835514046453392,5.01955086,-7.811053101333333,-2.900312118583333,False,2.2922000000000002
mp-1223194,La8 As4 S12 O6,30,Orthorhombic,45,689.344184303731,4.556871178359624,22.978139476791036,4.68620814,-6.947673874666666,-2.363786281,False,1.912199999999999