material_id,composition,nsites,crystal_system,space_group,volume,density,density_atomic,efermi,energy_per_atom,formation_energy_per_atom,is_gap_direct,band_gap
mp-31924,Li4 Mn4 P8 O28,44,Monoclinic,15,498.20349822613196,3.144034579419344,11.322806777866635,1.6481756600000002,-7.705107801136364,-2.565324869822735,False,1.2405
mp-1222353,Li2 Mn2 Rh2 O8,14,Orthorhombic,74,143.31045998242539,5.301799876430993,10.2364614273161,3.15542488,-7.232857109285713,-1.7718442451806231,False,0.043499999999999005
mp-755701,Li4 Mn4 Sb4 O16,28,Tetragonal,95,341.5516882125537,4.815790259989605,12.198274579019776,3.17380702,-7.098584631785714,-2.099758429109196,False,2.014
mp-19107,Li2 Mn2 V2 O8,14,Orthorhombic,63,155.97052984040462,3.764986087521542,11.140752131457473,1.92721516,-8.078532514999997,-2.371862765180622,False,1.857499999999999
mp-585265,Li2 Mo4 P6 O24,36,Monoclinic,5,490.3701527223701,3.276141517703211,13.621393131176948,1.58659076,-8.019425834166666,-2.507082738458994,False,1.3835
mp-2767670,Li2 Mo12 Cl26,40,Triclinic,2,1019.6446904596307,3.3986793949645993,25.491117261490768,4.57851071,-13.112601265250001,-1.172586829208334,False,2.7719
mp-558917,Li2 Mo2 I2 O12,18,Monoclinic,4,260.23128451863494,4.157636337427093,14.457293584368607,1.18308338,-6.514779156666666,-1.6296289764814822,False,2.2334
mp-18987,Li2 Mo2 P4 O14,22,Monoclinic,4,291.2257489264939,3.156847265611529,13.23753404211336,3.4332438,-7.8756646786363635,-2.582824036601731,False,1.536099999999999
mp-8180,Li2 N2 O6,10,Trigonal,167,92.80084348909155,2.467377582518515,9.280084348909154,0.23629574,-6.404979223999999,-1.386762498666665,False,2.9369
mp-559052,Li2 Nb6 Bi8 O28,44,Monoclinic,15,620.7342804259896,7.199141946895747,14.107597282408854,3.20664391,-7.7501055325,-2.429904200833333,False,2.7191
mp-28463,Li4 Nb12 Cl32,48,Orthorhombic,64,1161.397575705695,3.255796548021494,24.19578282720198,3.05653547,-12.005633164375,-1.5215963690972232,True,0.8827
mp-29985,Li2 Nb12 Cl38,52,Orthorhombic,51,1295.262603400395,3.174220542549448,24.908896219238365,1.772453,-11.8034128025,-1.507739980737179,True,0.7552000000000001
mp-756415,Li4 Nb4 Fe4 O16,28,Tetragonal,95,332.39763535513816,4.389968586158098,11.871344119826363,2.21424705,-8.248900056428571,-2.495743894047618,False,2.2421
mp-1029903,Li4 Nb4 N8,16,Orthorhombic,62,191.65237873669187,4.431310932334379,11.978273671043242,2.41533404,-12.433343433125,-1.088772831666666,False,1.1528
mp-3924,Li2 Nb2 O4,8,Hexagonal,194,77.26563847183948,5.667091788849184,9.658204808979935,5.22817792,-8.162920410000002,-2.686382930833336,True,1.579499999999999
mp-7936,Li2 Nb2 S4,8,Hexagonal,194,127.4225028000824,4.273826671822952,15.9278128500103,5.91385699,-6.625703573750002,-1.553966813333334,False,0.713499999999999
mp-1025496,Li2 Nb2 Se4,8,Hexagonal,194,146.4155846748299,5.846820275802376,18.301948084353736,5.60243542,-15.17258540375,-1.236610022447918,False,0.7318999999999991
mp-1211080,Li2 Nd4 Ru2 O12,20,Monoclinic,14,246.39055717835117,6.638251230322574,12.319527858917558,3.86939738,-7.8452131885,-2.8044745583333333,False,0.42460000000000003
mp-1191015,Li8 Nd8 Sn8,24,Hexagonal,186,607.0569512174279,5.906106429099824,25.294039634059498,4.14982137,-4.224790463333333,-0.6625764119444431,False,0.0029000000000000002
mp-2348641,Li3 Ni3 O6,12,Triclinic,1,104.92425290393659,4.635450955622343,8.743687741994716,3.39448681,-5.894236688333334,-1.497991299166667,False,0.018000000000000002
mp-1222366,Li2 Ni2 Rh2 F12,18,Tetragonal,102,206.42498550507634,4.545502390446148,11.468054750282018,0.76334004,-5.262976811666666,-2.314478848703703,False,1.6961
mp-756254,Li4 Ni4 Sb4 O16,28,Orthorhombic,74,324.7145787447152,5.142315921194237,11.596949240882685,3.703120949999999,-6.397877060714286,-1.882176374047619,True,1.920199999999999
mp-1079181,Li1 Os1 F6,8,Trigonal,148,98.66740265799402,5.236741605444871,12.333425332249252,-1.06839867,-11.565694305000001,-2.299681434583332,False,1.2041
mp-9588,Li8 P8,16,Monoclinic,14,248.52719555021827,2.026625484183503,15.532949721888642,4.12805224,-6.3110585625,-0.616667199821428,False,0.8094999999999991
mp-758098,Li2 P6 W4 O24,36,Triclinic,2,497.70603569248914,4.4009262398138045,13.825167658124698,1.43900786,-8.277915612500001,-2.530852503458995,False,2.7689
mp-27687,Li8 P56,64,Tetragonal,142,1357.3671398103195,2.189873519980373,21.208861559536242,3.9000896,-8.3658560221875,-0.19070094749999902,False,1.688199999999999
mp-1211106,Li2 Pr4 Ru2 O12,20,Monoclinic,14,250.43458820623317,6.442621033854562,12.521729410311659,3.69885047,-7.8327124195,-2.786508984166666,False,0.30149999999999905
mp-1191159,Li8 Pr8 Sn8,24,Hexagonal,186,619.3845790964509,5.717043230373733,25.807690795685456,4.14458707,-4.227066072083333,-0.6557440120833321,False,0.005
mp-14115,Li1 Rh1 O2,4,Trigonal,166,37.46631942068893,6.286704050612769,9.366579855172233,4.4847718,-6.348113114999999,-1.555824928333332,False,1.515299999999999
mp-1078834,Li1 Ru1 F6,8,Trigonal,148,96.29568704956759,3.828229910572081,12.036960881195949,-1.8040982300000001,-8.12823274,-2.307306563958333,False,0.9999
mp-995393,Li2 S8,10,Triclinic,1,2115.0784624047956,0.212291455219233,211.50784624047955,-4.18569431,-4.303887513,-0.611415285666665,False,2.1989
mp-29892,Li2 Sb6 O16,24,Monoclinic,14,270.8505755335312,6.133481830045935,11.285440647230466,4.8029141200000005,-6.450113695833334,-1.960145810277778,True,0.974399999999999
mp-4995,Li4 Sb4 O12,20,Orthorhombic,52,215.50013311485165,5.4462318959327884,10.775006655742583,3.64894126,-6.294555521499999,-2.118194097166666,True,2.1379
mp-756006,Li2 Sb2 S2,6,Triclinic,1,144.37090125257367,3.698227568919558,24.061816875428946,4.31440605,-4.345199538333333,-0.9531049802777761,False,0.385899999999999
mp-1079885,Li2 Sb2 S4,8,Monoclinic,15,169.30242856169352,3.782620384974135,21.16280357021169,4.96239156,-4.499614043750002,-0.9209532333333341,False,0.091099999999999
mp-1001786,Li1 Sc1 S2,4,Trigonal,166,71.36198036372909,2.699858092095306,17.840495090932272,3.73710391,-6.1498234725,-2.020295695833332,False,1.4856999999999991
mp-1198027,Li8 Si16 B8,32,Tetragonal,137,409.79645320567636,2.396351231642557,12.806139162677386,7.41429677,-5.0029624165625,-0.1432247421875,False,1.166799999999999
mp-973391,Li4 Si4 B24,32,Orthorhombic,64,281.67713989551106,2.35553937776949,8.80241062173472,5.18357231,-6.12850450375,-0.20218056354166603,False,1.7307000000000001
mp-12448,Li2 Sm4 Os2 O12,20,Monoclinic,14,244.31203829312057,8.073062921920451,12.215601914656029,3.98391646,-8.0690573785,-2.8429345188333333,True,0.396099999999999
mp-1210954,Li2 Sm4 Ru2 O12,20,Monoclinic,14,241.10628850125866,6.952282919647443,12.055314425062933,3.73743224,-7.859963636000001,-2.829137265333334,True,0.39990000000000003
mp-1222296,Li1 Sm1 S2,4,Trigonal,166,85.47449220926171,4.301807668609495,21.368623052315428,2.2604998,-5.7790061875,-2.052949153333333,False,1.9482
mp-35388,Li2 Sm2 Se4,8,Tetragonal,141,195.77890168871656,5.347223634393145,24.47236271108957,2.61552027,-17.114039415,-1.9283516161979182,True,1.5829
mp-1197059,Li4 Sn4 H24 N12,44,Monoclinic,14,620.3147279508877,1.86013158400048,14.09806199888381,2.47530309,-5.09625726,-0.432227570075757,False,2.8810000000000002
mp-1029294,Li2 Sn4 N6,12,Orthorhombic,36,174.33071378390855,5.455688147704655,14.527559481992379,5.02449021,-6.020639900833333,-0.19682326555555502,True,0.8538999999999991
mp-1029625,Li8 Ta8 N16,32,Monoclinic,14,322.1823948481836,8.902141798950826,10.068199839005738,4.33837347,-18.613270008125,-1.304259891000001,False,0.38919999999999905
mp-1206881,Li2 Ta2 S4,8,Hexagonal,194,125.15500172365117,6.687502536811419,15.644375215456396,7.22833211,-7.035754876250003,-1.522612490166668,False,0.8540999999999991
mp-1210924,Li2 Tb4 Ru2 O12,20,Monoclinic,14,233.9421961294066,7.408375031174819,11.69710980647033,3.71929728,-7.879645379,-2.864963510666666,False,0.0814
mp-1222297,Li1 Tb1 S2,4,Trigonal,166,81.72231737318349,4.673361410034245,20.43057934329587,2.394956,-5.7952186475000005,-2.08934224125,False,2.0554
mp-15793,Li1 Tb1 Se2,4,Trigonal,166,92.8551015473329,5.7903106501127315,23.213775386833223,2.57718696,-5.311206275,-1.9265539136718741,False,1.5013
mp-773582,Li2 Te2 H24 N8,36,Triclinic,2,389.5540763254325,1.72777019751345,10.820946564595348,0.45148709000000004,-4.905563410833333,-0.5084891327777771,False,1.3014000000000001
mp-27466,Li12 Te36,48,Cubic,229,1435.5474755014086,5.409895533797263,29.907239072946012,4.72600986,-3.5317176554166663,-0.697007518749999,False,0.2237
mp-18640,Li2 Ti4 P6 O24,36,Trigonal,167,452.4846148490083,2.8447677466583263,12.56901707913912,1.08185921,-8.202744660277778,-3.018196908273809,True,2.4425
mp-1029424,Li2 Ti4 N6,12,Orthorhombic,63,133.92080045595733,3.5882680730333902,11.16006670466311,3.52896278,-8.64994024916666,-1.5308168933333262,True,1.786099999999999
mp-756275,Li4 Ti4 Cr4 O16,28,Orthorhombic,74,300.0235128547751,3.781342239386144,10.715125459099111,2.4253472,-8.493460436071429,-2.88641666845238,False,1.751399999999999
mp-772042,Li4 Ti4 V4 O16,28,Orthorhombic,74,305.8032503808621,3.6869678872412273,10.92154465645936,3.39841199,-8.463699400714287,-2.937961547380953,False,0.762
mp-989512,Li1 Tl2 In1 Cl6,10,Cubic,225,268.52747905755245,4.59612192440054,26.852747905755244,0.87136364,-3.623921787999999,-1.5736920236666672,False,2.8771
mp-1176564,Li4 Tm4 O8,16,Monoclinic,14,194.538234324863,7.097482214408746,12.158639645303937,4.89913285,-7.421100753125,-3.349264163958334,True,0.0001
mp-1223108,Li2 U8 As6 O40,56,Tetragonal,109,918.9054629022631,5.43501899739488,16.409026123254698,2.51827702,-8.532490006071429,-2.816627484494046,False,1.8788
mp-555232,Li4 U16 P12 O80,112,Monoclinic,14,1701.0830647303924,5.35706472047706,15.188241649378503,1.3120485,-9.025168193482143,-3.229446636955781,False,1.838899999999999
mp-558943,Li2 U2 As2 O12,18,Triclinic,2,273.3171583907824,5.053456035820655,15.18428657726569,0.71140516,-7.9933867972222234,-2.709139970648147,False,2.2759
mp-27403,Li8 U8 F40,56,Tetragonal,88,712.2075783291616,6.341073321392527,12.7179924701636,3.54221547,-17.814366907857142,-3.820240795238096,True,0.14779999999999902
mp-1222392,Li1 U1 I6,8,Monoclinic,5,340.6808009009254,4.9053573968481095,42.58510011261568,1.5686524400000001,-3.955713308749999,-1.1626622379166651,False,0.663199999999999
mp-8007,Li2 U2 O6,10,Trigonal,161,126.88718923279944,7.667992251454383,12.688718923279945,5.54832641,-8.957352078999984,-3.348508900666648,False,0.44310000000000005
mp-762019,Li1 V1 C2 O6,10,Trigonal,148,97.10719112597572,3.042106302164876,9.710719112597571,3.78214723,-8.055318853,-2.141526257833334,False,2.0581
mp-1539853,Li2 V2 O4 F4,12,Monoclinic,11,130.6139873779603,3.251513803426885,10.88449894816336,-0.81876443,-6.836725545000006,-2.717316262222228,False,2.2316000000000003
mp-26955,Li4 V4 P16 O48,72,Orthorhombic,60,1016.7100087976557,2.441837925937837,14.120972344411886,1.18152416,-7.784760638888888,-2.671968688994708,False,2.1576
mp-765346,Li8 V8 Si16 O48,80,Orthorhombic,61,861.082527033572,3.2405355253185792,10.76353158791965,3.58051177,-8.127568372375,-2.974445269708334,False,2.1872
mp-1101601,Li4 V8 P12 O48,72,Monoclinic,13,885.9151262178558,2.952054680915471,12.304376753025775,1.2836494,-7.971580075000001,-2.6549863170701062,True,1.3092000000000001
mp-25812,Li2 V4 P10 O32,48,Monoclinic,7,653.3173070200177,2.641761555031484,13.610777229583702,3.03895214,-7.947295496458333,-2.683900550064484,False,0.032999999999999
mp-867665,Li2 V6 O4 F12,24,Monoclinic,14,274.39934526181054,3.70057483588008,11.433306052575439,1.78812715,-7.263363621250001,-3.051723843194445,False,1.4936
mp-559938,Li2 V6 Te4 O24,36,Triclinic,2,453.1699574322205,4.44812350164615,12.588054373117236,2.00617359,-7.334756831111112,-2.066824335370372,False,1.924799999999999
mp-1280709,Li2 V6 Zn4 O16,28,Monoclinic,12,301.67240839965285,4.608086549803546,10.774014585701888,2.7368962,-7.4102690450000015,-2.31999644952381,False,1.377499999999999
mp-754895,Li2 V2 F8,12,Monoclinic,14,128.70114757416502,3.45461590015493,10.725095631180418,-0.078899,-6.342902657500001,-3.234862918055556,False,2.455699999999999
mp-1029932,Li4 V4 N8,16,Orthorhombic,33,179.76813243281472,3.173721519615246,11.23550827705092,3.02861892,-9.70941348375,-1.025967612291667,False,1.3312
mp-19440,Li4 V4 O12,20,Monoclinic,15,293.78309915898933,2.393861855937532,14.689154957949466,-1.437914699999999,-7.5945367915,-2.427194401166667,False,2.8357
mp-26227,Li4 V4 P8 O28,44,Monoclinic,15,506.387899981432,3.040798071303451,11.50881590866891,2.5189235500000002,-7.851035802954545,-2.718353710010822,False,2.1466
mp-26127,Li4 V4 P4 O16,28,Orthorhombic,63,295.667794444939,3.4338512898665132,10.559564087319249,4.9905589,-7.813832311785714,-2.642382814353741,False,2.777299999999999
mp-26963,Li4 V4 P4 O20,32,Orthorhombic,62,350.8850544978658,3.196345178908732,10.965157953058306,2.461679359999999,-7.8098087290625,-2.666295293184523,False,1.5636
mp-850189,Li2 V2 Sn2 O8,14,Orthorhombic,74,169.12652851022693,4.724383142092846,12.080466322159067,3.99362028,-7.301646636428572,-2.331040234761905,False,1.4519
mp-15788,Li1 Y1 S2,4,Trigonal,166,81.09398007889097,3.275801840262089,20.27349501972274,2.93821393,-6.26149185,-2.087808474583332,False,1.920399999999999
mp-15794,Li1 Y1 Se2,4,Trigonal,166,92.09990726618335,4.575354967678076,23.024976816545838,2.3846198,-14.7993274525,-1.968470493697916,False,1.523899999999999
mp-561390,Li2 Yb2 P8 O24,36,Monoclinic,15,429.31002264136276,3.8359672525129813,11.925278406704521,-0.06299054,-10.849584033333334,-2.7077709840873023,False,0.0035999999999990003
mp-9124,Li1 Zn1 As1,3,Cubic,216,51.4734034663151,4.75100204634274,17.157801155438367,2.99085436,-3.131120646666666,-0.518190976944444,True,0.5518000000000001
mp-7575,Li1 Zn1 N1,3,Cubic,216,28.78282869116706,4.982091077680031,9.59427623038902,3.19062686,-7.232156096666666,-0.42346953347222105,True,0.5187
mp-10182,Li1 Zn1 P1,3,Cubic,216,46.29883627834184,3.70577658318684,15.432945426113946,3.19037878,-7.422280926666667,-0.655819149880952,False,1.3386
mp-11175,Li1 Zn1 P1 S4,7,Tetragonal,82,153.98989737362206,2.497266967183973,21.998556767660293,1.76933536,-4.537172941428571,-0.9460903311394541,False,2.731199999999999
mp-1222336,Li2 Zn2 Rh2 F12,18,Tetragonal,102,214.05590007006765,4.487651576331298,11.891994448337092,0.03770193,-4.857079505555555,-2.410847439259258,False,1.5896
mp-9919,Li2 Zn2 Sb2,6,Hexagonal,186,121.38612628672381,5.310775589895061,20.2310210477873,4.47948322,-12.785949791666667,-0.45140820888888705,False,0.4057
mp-973586,Lu2 Al6 C6,14,Hexagonal,194,168.85467822621095,5.742025633246751,12.061048444729353,6.853481,-6.545326733571428,-0.338982244880951,False,0.152899999999999
mp-29339,Lu1 Nb6 Cl18,25,Trigonal,148,649.165839933465,3.505833313355534,25.9666335973386,1.87700709,-13.5093506272,-1.620221497666666,False,0.09199999999999901
mp-1203980,Lu11 Ni60 C6,77,Cubic,229,939.2115750848428,9.756439985521007,12.197552923179776,6.81030376,-6.161299955714286,-0.29222520582251005,True,0.025900000000000003
mp-1203152,Lu20 Os5 I24,49,Triclinic,2,1861.9291834551566,6.6853930562931385,37.99855476439095,2.9976540700000003,-5.014695957346939,-1.277004345578232,True,0.016299999999999003
mp-573376,Lu2 C1 Cl2,5,Trigonal,166,101.97525168913502,7.0484307265675294,20.395050337827005,2.66327015,-6.211872266,-1.8180470661666672,False,1.034399999999999
mp-8269,Lu4 Cd2 S8,14,Cubic,227,336.7363374718067,5.824869883615719,24.052595533700476,1.89850093,-20.28102005357143,-1.9374851413690481,True,1.2348
mp-14304,Lu4 Mg2 S8,14,Cubic,227,326.5004352664525,5.111290095196812,23.321459661889463,2.14184867,-6.066661721428574,-2.177049836904763,True,1.9819
mp-10191,Lu4 Mg2 Se8,14,Cubic,227,373.8432248231312,6.130394039278892,26.703087487366513,1.8643624,-5.469364488571429,-1.946865798244048,True,1.476999999999999
mp-19153,Lu4 Mn4 O14,22,Cubic,227,231.7828861650061,8.193064074463457,10.535585734773004,2.7192505000000002,-8.574763075454547,-2.938114664017765,False,1.112099999999999
mp-1103893,Lu4 Mn2 Se8,14,Cubic,227,368.82127013954755,6.48970438195642,26.34437643853911,2.37076318,-6.307644660714287,-1.7092109308056251,True,0.7626000000000001
mp-1192803,Lu8 Pb4 S16,28,Orthorhombic,62,652.9929803982398,6.971735054910605,23.321177871365705,3.61695011,-6.099302765357144,-1.9122370158333322,False,2.302
mp-753414,Lu4 Pt4 O14,22,Cubic,227,253.3400718407925,11.170295130831974,11.515457810945113,5.28594687,-7.571723355909094,-2.497053484848487,False,1.657299999999998
mp-2826,Lu4 S6,10,Trigonal,167,234.79907691597418,6.310200559334407,23.47990769159742,2.35414804,-22.40641765,-2.353466127354164,False,2.5664
mp-1189125,Lu8 Se12,20,Orthorhombic,70,536.7983550660795,7.26103247248484,26.839917753303972,1.97353179,-25.9673875735,-2.148499361604166,False,1.3355000000000001
mp-1206825,Lu2 Se1 O2,5,Trigonal,164,79.4905816913324,9.627939356218242,15.89811633826648,3.74401479,-8.006941848,-3.519900169135417,False,2.0255
mp-1222448,Lu2 Si9 B36 C1,48,Monoclinic,8,485.0275825893726,3.4369841351260613,10.104741303945262,6.64560413,-6.604769288541667,-0.197310821475693,False,1.2246000000000001
mp-15170,Lu4 Sn4 O14,22,Cubic,227,270.43947123858175,8.588226110636045,12.292703238117353,4.28334339,-7.72554446818182,-3.02570395439394,True,2.618299999999999
mp-1189748,Lu8 Te12,20,Orthorhombic,70,664.6160970181179,7.322924845697291,33.2308048509059,3.9377244300000003,-5.288796589000003,-1.59413807166667,True,0.5877999999999991
mp-755515,Lu6 Te3 O18,27,Trigonal,150,345.3432066478259,8.273244848165772,12.790489135104664,2.37767467,-7.7150877611111,-3.062371446666656,False,2.9817
mp-18332,Lu8 Zn4 S16,28,Orthorhombic,62,630.1673553030956,5.729741540082126,22.50597697511056,2.23348237,-18.700710973928572,-1.9563739310119042,True,2.3855999999999993
mp-1199315,Lu24 Ga16,40,Tetragonal,140,916.3441434027177,9.631090286075493,22.908603585067944,3.19870557,-28.0655764195,-0.6405379294999981,False,0.026499999999999004
mp-1189199,Lu6 Sb8 Au6,20,Cubic,220,466.8103940681494,11.403257705190265,23.34051970340747,6.21076312,-37.708283849,-0.826305456999995,False,0.5770999999999991
mp-1210662,Lu16 Cd4 Ni4,24,Cubic,216,563.8094107535676,10.260798550327923,23.49205878139865,3.33475703,-4.454866559166665,-0.31705044527777604,False,0.052899999999999
mp-1210803,Lu16 Cd4 Pt4,24,Cubic,216,589.3683561345854,11.352938096088694,24.557014838941058,3.45152798,-4.810489975833339,-0.62417442194445,False,0.0145
mp-1210928,Lu16 In4 Rh4,24,Cubic,216,585.6517030214557,10.406844375721194,24.402154292560652,4.30909023,-33.83791339166667,-0.6655234344444381,False,0.024799999999999003
mp-1211003,Lu16 Mg4 Ni4,24,Cubic,216,588.7625626229942,8.831949065082972,24.531773442624758,3.39060407,-4.466512575416666,-0.21695315736111,False,0.0158
mp-1210574,Lu5 Re2 O12,19,Monoclinic,12,233.49524867927155,10.235399858035173,12.289223614698503,4.05184318,-9.02776114263158,-3.402487577280703,False,0.023799999999999003
mp-1210969,Lu12 Al86 V8,106,Hexagonal,193,1772.7148292686145,4.522065505540085,16.72372480442089,7.27758506,-11.159601948207547,-0.32341681216981005,True,0.008799999999999001
mp-1201491,Lu6 H40 N8 O49,103,Triclinic,2,986.746527246695,3.342367346341652,9.580063371327135,-0.47146766,-6.155673761650486,-1.572245669660194,False,2.9824
mp-755804,Lu6 Te1 O12,19,Trigonal,148,237.57114168675676,9.571589995543858,12.503744299302987,2.27786483,-8.369933911052634,-3.651567454561405,False,2.8127
mp-20402,Lu6 U1 O12,19,Trigonal,148,247.47089004268875,9.929673270711007,13.024783686457303,2.16872293,-9.213171685789474,-4.065957644210526,False,1.9232
mp-1018025,Lu1 Ag1 O2,4,Trigonal,166,61.0765688395842,8.559651703209585,15.26914220989605,1.1285895,-7.024019742499998,-2.708882957083331,False,2.153
mp-14802,Lu12 Au24 F108,144,Orthorhombic,60,2220.851565997444,6.63858443888876,15.422580319426695,-1.92967251,-4.743816767847222,-2.385973198819444,False,1.9441000000000002
mp-545847,Lu1 Bi2 Br1 O4,8,Tetragonal,123,139.43952836009333,8.774656788566745,17.429941045011667,3.68937843,-6.644609340000001,-2.428291011458334,False,1.3984