material_id,composition,nsites,crystal_system,space_group,volume,density,density_atomic,efermi,energy_per_atom,formation_energy_per_atom,is_gap_direct,band_gap
mp-557348,Ba2 V4 P8 O28,42,Triclinic,2,598.3549630193056,3.258590569566159,14.246546738554896,1.7897324700000001,-8.140622270714285,-2.853949163503401,False,2.0462
mp-18929,Ba3 V6 O18,27,Orthorhombic,21,430.2301978550438,3.881340677731001,15.93445177240903,-0.58656794,-8.224208113703703,-2.693702212592591,False,2.878
mp-556790,Ba4 V8 Te4 O32,48,Monoclinic,14,763.0396321178771,4.307211999860557,15.896659002455772,1.26323238,-7.634381341875,-2.399899590763889,False,2.6938
mp-17264,Ba4 V4 As4 O24,36,Monoclinic,14,527.560025698692,4.522277552438899,14.654445158297001,0.50343832,-7.495278198333334,-2.455192690277778,False,2.6697
mp-1214298,Ba4 V4 Cd4 F28,40,Monoclinic,15,601.4719357214259,4.789072596900758,15.036798393035648,2.76985604,-5.83404624475,-3.298060462249999,False,2.5315
mp-559481,Ba4 V4 Cl4 O12,24,Orthorhombic,62,429.91567408535104,4.19804351608967,17.913153086889626,0.61100446,-7.386610226666666,-2.770726779166666,False,2.3925
mp-556379,Ba4 V4 O4 F16,28,Orthorhombic,43,425.39965004482474,4.375980947043825,15.192844644458026,0.31466853,-6.8220605217857155,-3.449738876785715,False,2.7946
mp-18520,Ba4 V4 P4 O24,36,Monoclinic,14,499.598961867176,4.191090482633005,13.87774894075489,1.02379174,-7.995347303333334,-2.872445018293651,False,2.469
mp-1047908,Ba4 V4 Zn4 F28,40,Monoclinic,14,555.2698208022888,4.625315549518185,13.881745520057219,0.27223936,-5.9030993885,-3.337140264,False,2.5205
mp-989622,Ba4 W4 N12,20,Monoclinic,14,340.15347524074014,7.0919324591152,17.007673762037008,3.3171471,-8.8003423065,-0.8219546254999991,False,1.505
mp-6647,Ba2 Y2 Ag2 Se6,12,Orthorhombic,63,333.1875546457494,5.691307052698065,27.76562955381245,2.716851939999999,-5.399531403333333,-1.773074978116318,False,1.3282
mp-10337,Ba2 Y2 Ag2 Te6,12,Orthorhombic,63,397.6590418390843,5.9872507608831445,33.13825348659036,4.17453847,-4.914652295,-1.4644986619444431,False,0.7675000000000001
mp-1103275,Ba2 Y2 Cu2 S6,12,Orthorhombic,63,282.7541605797372,4.533441030872233,23.562846714978097,3.86095631,-6.107073294166667,-1.950014658749999,False,1.1779
mp-1101801,Ba2 Y2 Cu2 Se6,12,Orthorhombic,63,317.2276095609373,5.513628504190058,26.43563413007811,3.3763231400000002,-5.645602149999999,-1.809767559505208,False,0.9653
mp-10336,Ba2 Y2 Cu2 Te6,12,Orthorhombic,63,381.23874406486715,5.859023896080573,31.76989533873893,4.65641791,-5.110979150833334,-1.4514473525,False,0.5313999999999991
mp-1195207,Ba8 Y8 Fe8 O32,56,Orthorhombic,62,798.7029030270551,5.756050742153955,14.262551839768841,4.68533295,-8.151619938392857,-2.910201128392857,True,1.7746
mp-11670,Ba2 Y2 Si8 N14,26,Hexagonal,186,321.0270823102787,4.516924042573491,12.347195473472256,5.74027708,-8.243565991153845,-1.43608270076923,False,2.7321
mp-1214224,Ba2 Yb2 Cu2 Te6,12,Orthorhombic,63,371.62703676490435,6.762433162251297,30.968919730408697,4.59552351,-26.4430705075,-1.421831624166666,False,0.7876000000000001
mp-1041309,Ba4 Zn4 Ag4 F28,40,Monoclinic,14,585.4996923714824,5.032306953965164,14.63749230928706,-1.18705162,-4.5025191575,-2.560656872166666,False,0.38270000000000004
mp-1079320,Ba2 Zn2 As2 F2,8,Tetragonal,129,177.84166110237393,5.539859216355902,22.23020763779674,2.9830057400000003,-4.429661045,-1.988987680624999,True,0.24709999999999901
mp-1041302,Ba4 Zn4 Cu4 F28,40,Monoclinic,14,538.7086767273476,4.922919027601048,13.467716918183688,-0.93296536,-4.81178762825,-2.74429844375,False,0.7594000000000001
mp-4236,Ba3 Zn3 O6,12,Trigonal,152,204.24457974584027,5.725287390866139,17.02038164548669,1.16992688,-5.634084176666666,-2.3654240366666652,False,2.2724
mp-548469,Ba2 Zn2 S2 O2,8,Orthorhombic,63,161.26306331513743,5.165024817928211,20.15788291439218,2.38654099,-5.14430216625,-2.078042385625,True,2.2367
mp-13593,Ba8 Zn8 Sn8 S32,56,Orthorhombic,43,1563.0598380439326,3.8220130198927453,27.91178282221308,1.90049522,-4.7215762466071425,-1.329900721607142,True,2.271099999999999
mp-1191811,Ba2 Zn2 Te4 O14,22,Orthorhombic,40,327.6420001846207,5.777000620582103,14.892818190210033,3.37008001,-5.988035958181817,-1.978848924393938,False,1.6684
mp-3104,Ba2 Zr2 N4,8,Tetragonal,129,147.38682252456016,5.781184531986169,18.42335281557002,3.14991617,-8.209672125,-1.423864360000001,False,0.9972000000000001
mp-540771,Ba4 Zr4 S12,20,Orthorhombic,62,506.0566946992324,4.262395303692848,25.30283473496162,2.88159427,-6.683471456999999,-2.107120602499998,True,0.9900000000000001
mp-998427,Ba4 Zr4 Se12,20,Orthorhombic,62,561.8133477504385,5.50265572294674,28.090667387521925,2.97248738,-6.1113449565,-1.920462955906249,True,0.37259999999999904
mp-757917,Be6 Ga12 O24,42,Trigonal,145,467.63323720503877,4.52651049413797,11.134124695358066,1.04723048,-6.736013494523808,-2.50923507595238,True,2.8899
mp-1569,Be2 C1,3,Cubic,225,20.218610784013585,2.466756874278714,6.739536928004528,6.31837236,-5.800467526666666,-0.23130378583333303,False,1.163699999999999
mp-1215013,Be4 Co2 N4 F28,38,Monoclinic,14,591.0648760562208,2.084287777073172,15.554338843584757,-4.19711833,-4.829694503684211,-1.772708651578947,False,0.662999999999999
mp-567841,Be24 P16,40,Cubic,206,529.7308149028433,2.2314960033755202,13.243270372571084,5.0792118,-4.64119878275,-0.23136165360714203,True,0.8891
mp-27608,Be4 Te1 O7,12,Cubic,216,108.81526870103222,4.20638126158646,9.067939058419352,3.07947773,-6.9671851333333334,-2.572461434305555,True,1.280699999999999
mp-1072399,Be5 Pt1,6,Cubic,216,52.9965917324898,7.524446226900912,8.8327652887483,6.2554758,-4.589629785,-0.461596844166666,False,0.09529999999999901
mp-15919,Be12 Ag12 P12 O48,84,Monoclinic,14,973.7786147227819,4.335130288390942,11.592602556223593,2.22168796,-6.91907660202381,-2.377695446496598,False,2.8716
mp-1193887,Be4 Cr8 O16,28,Orthorhombic,62,254.39765156712795,4.621405962925308,9.085630413111712,3.21637849,-8.719697036428569,-2.600075347142854,False,2.8371
mp-1009088,Be2 Ge2 As4,8,Tetragonal,122,158.31249595440102,4.856308066284442,19.789061994300127,4.2037631300000005,-4.59454341375,-0.16887196750000003,False,0.6522999999999991
mp-1013527,Be2 Ge2 P4,8,Tetragonal,122,139.67755075638894,3.414334235873869,17.459693844548617,4.98191575,-5.06597020375,-0.26762326107142803,False,0.9023000000000001
mp-27148,Be8 P16,24,Monoclinic,15,378.1575154801126,2.492746734235346,15.75656314500469,5.4305251,-5.176169704583333,-0.319383066011903,False,0.836199999999999
mp-1541,Be1 Se1,2,Cubic,216,34.50577300165209,4.2335305740883165,17.252886500826044,2.92071872,-4.6470500349999995,-1.029387863671874,False,2.663699999999999
mp-1009087,Be2 Si2 As4,8,Tetragonal,122,151.63648820777536,4.094300011489495,18.95456102597192,4.40342348,-4.83157439625,-0.20533040624999901,True,1.0226
mp-1009085,Be2 Si2 P4,8,Tetragonal,122,133.16868998197077,2.470076621534859,16.646086247746346,5.46849711,-5.37151493,-0.37259544357142804,True,1.1502
mp-1009084,Be2 Sn2 As4,8,Tetragonal,122,178.11038475274592,5.175533824000081,22.26379809409324,4.56630099,-4.442035604999999,-0.16972815874999903,False,0.6936999999999991
mp-252,Be1 Te1,2,Cubic,216,45.4005098428141,4.996636953414623,22.70025492140705,4.56983087,-4.011721319999999,-0.570361940833332,False,2.017299999999999
mp-679989,Bi4 Mo24 Cl60,88,Monoclinic,15,2310.020429792882,3.785177258834649,26.250232156737297,1.74000957,-5.75052867875,-1.355434271022727,False,2.133299999999999
mp-569822,Bi4 W24 Cl60,88,Monoclinic,15,2347.0516078352944,5.217997751864626,26.671040998128344,4.22007345,-6.161430146250001,-1.190204796704546,False,1.9545000000000001
mp-558215,Bi10 Mo3 O24,37,Monoclinic,5,578.3170069414159,7.9294929466982484,15.630189376795025,3.16633801,-6.953122907837788,-1.812897028108059,True,2.6912000000000003
mp-691119,Bi14 Mo1 O24,39,Triclinic,1,654.7840616005493,8.636766220285814,16.789334912834597,6.18216202,-6.417050549999999,-1.697635304615385,False,2.6318
mp-759924,Bi14 S1 O24,39,Monoclinic,8,645.9834756466801,8.590235108381002,16.563678862735387,3.69519977,-6.252673130512819,-1.7052396939102552,False,2.706699999999999
mp-685318,Bi60 As4 O100,164,Trigonal,146,2809.3692417433517,8.534161545631628,17.13030025453263,5.98474397,-6.215684314695123,-1.661546209634148,False,2.2346
mp-23388,Bi8 Mo12 O48,68,Monoclinic,14,947.8065623428338,6.291529073515254,13.93833179915932,1.984567639999999,-7.761456030735296,-1.8971883242647092,True,2.717
mp-28975,Bi8 P12 Se36,56,Monoclinic,14,1565.7164160826821,5.181998792840427,27.95922171576218,2.72221206,-19.734954253214287,-0.24818150289222002,False,1.3635
mp-629690,Bi4 Pb6 S12,22,Monoclinic,12,588.0578116490917,6.957487481689447,26.729900529504167,4.6710696,-4.6978793268181835,-0.7207732145454541,True,0.5274999999999991
mp-560085,Bi48 Cl20 O62,130,Monoclinic,13,2385.277085678378,8.167428685969224,18.34828527444906,4.43150565,-5.760057197153845,-1.679548849538461,False,2.1764
mp-557090,Bi8 Au20 F84,112,Tetragonal,92,1849.8650209689406,6.469429976858691,16.51665197293697,-0.92811075,-4.049257413035714,-1.7513867525000002,True,1.2285
mp-556210,Bi16 C8 O40,64,Orthorhombic,33,861.8579406588494,7.860438033099017,13.466530322794522,5.19268304,-7.0030893215625,-1.7845219293750012,False,2.4505999999999992
mp-556586,Bi16 Mo16 O72,104,Monoclinic,14,1609.0574111881147,6.223634397540799,15.471705876808794,2.00240983,-7.579248158461539,-1.8867083211538471,True,2.88
mp-1200193,Bi4 Mo4 Se4 O26,38,Triclinic,2,556.3938226291571,5.82420548163448,14.641942700767292,2.05375285,-6.991582082631578,-1.6870197215625,False,2.8105
mp-23064,Bi8 Mo4 O24,36,Orthorhombic,29,497.9733570727421,8.135038654785008,13.832593252020613,3.7606227,-7.225672830833332,-1.857507857499999,False,2.129299999999999
mp-23262,Bi8 O12,20,Monoclinic,14,327.9206233179676,9.438175801265304,16.396031165898382,4.50689941,-6.166517542000003,-1.641727215000003,False,2.194499999999999
mp-675543,Bi2 Pb1 Se4,7,Trigonal,166,209.85418482066746,7.4459729808922255,29.97916926009535,4.05557131,-33.43616468285715,-0.502461465178571,True,0.4549
mp-29259,Bi8 Pd4 O16,28,Tetragonal,130,439.7962364970344,8.886163528142784,15.707008446322657,4.7186014499999995,-6.087769966785714,-1.408942188214287,False,0.49819999999999903
mp-23341,Bi4 Pt4 O14,22,Cubic,227,283.2825424331592,10.78713027153947,12.876479201507237,5.67565775,-6.290635338636362,-1.330811493636362,False,0.7805000000000001
mp-1078366,Bi4 S4 O2,10,Tetragonal,129,219.67965680937897,7.5300394019488035,21.967965680937898,4.8227816,-5.201454824000001,-1.000505072000002,True,0.9401
mp-22856,Bi8 S12,20,Orthorhombic,62,517.2810621133061,6.602026285137526,25.864053105665306,4.14431336,-28.6359473035,-0.414038356187501,False,1.361799999999999
mp-27891,Bi4 S2 O4,10,Orthorhombic,58,178.24590085987023,8.981083721992539,17.824590085987023,5.5926041,-5.7013293849999975,-1.338459345499998,False,0.8266
mp-541837,Bi2 Se3,5,Trigonal,166,151.77783048479455,7.164344933185313,30.35556609695891,3.68568557,-32.421922572,-0.43407693543750203,True,0.3769
mp-505564,Bi8 Se16 Cl28,52,Triclinic,2,1539.9871267515302,4.235366667354257,29.615137052914044,0.53856498,-17.412268814807693,-0.6955102997115381,False,1.0179
mp-552098,Bi2 Se1 O2,5,Tetragonal,139,92.74067800283997,9.470403686972716,18.548135600567996,5.67890132,-5.585749786000003,-1.351369364468753,False,0.36869999999999903
mp-29839,Bi8 Se4 O20,32,Orthorhombic,39,511.80489807146506,7.487185439035461,15.993903064733283,3.01268075,-6.08212278375,-1.58014964341797,False,2.8422
mp-667426,Bi32 Te32 O112,176,Orthorhombic,60,2883.938730447265,7.233347609970219,16.386015513904912,4.24046665,-6.042014093977272,-1.614522508371211,False,2.561199999999999
mp-27910,Bi2 Te2 S1,5,Trigonal,166,165.18278697670746,7.0894492889223955,33.03655739534149,4.67059811,-35.5065348,-0.331735761562498,True,0.436799999999999
mp-29666,Bi2 Te2 Se1,5,Trigonal,166,171.2386874142613,7.293480171224617,34.24773748285226,4.03651559,-36.776743937999996,-0.346632669812504,True,0.544199999999999
mp-34202,Bi2 Te3,5,Trigonal,166,181.7667606640336,7.315389164356592,36.35335213280672,5.17026459,-38.925645087999996,-0.274401004000003,True,0.3388
mp-28990,Bi8 Te16 O44,68,Monoclinic,14,1048.1448488719282,6.998358268658964,15.413894836351885,4.1960727,-5.975718742794117,-1.5768444340686272,False,2.828999999999999
mp-30097,Bi4 Te14 Cl16,34,Triclinic,2,1081.4325714738902,4.897582212843133,31.80684033746736,2.76802044,-20.848714153235296,-0.6049124567647101,False,0.8311000000000001
mp-23334,Bi8 Te4 O20,32,Orthorhombic,39,529.0117303166012,7.854367725983495,16.531616572393787,3.92510063,-6.102636548437502,-1.644739106145836,False,2.4275
mp-27251,Bi4 Te2 O12,18,Orthorhombic,64,240.23229014722577,8.869172361514133,13.346238341512542,5.24271359,-6.12926695,-1.616918000740741,False,1.259299999999999
mp-23480,Bi8 W4 O24,36,Orthorhombic,29,496.17847698103304,9.341150935963606,13.782735471695363,3.72162066,-7.559437763888888,-1.956552777222222,False,1.913999999999999
mp-1193877,Bi6 Te4 Cl20,30,Triclinic,2,909.8919840225359,4.513812356188953,30.329732800751195,2.49032968,-20.08821978066667,-0.897175858666669,False,1.2582
mp-866311,Bi3 Br1 O4,8,Tetragonal,123,144.8318707646196,8.837934474295418,18.10398384557745,4.24696889,-5.7674998524999985,-1.630138166874999,False,0.9257999999999991
mp-2756056,Bi6 Cl2 O8,16,Tetragonal,123,279.35394893191886,8.635653558288208,17.45962180824493,5.01816972,-27.0621495175,-1.370231815937501,False,0.6355000000000001
mp-2755713,Bi12 I4 O16,32,Orthorhombic,63,615.4973836739706,8.825777241063026,19.23429323981158,5.19917457,-29.2479361521875,-1.25523784125,False,1.075599999999999
mp-2741710,Bi18 P6 O42,66,Monoclinic,12,969.2237807743422,7.914375958101452,14.685208799611246,4.26416113,-22.353298248636364,-1.781294599816016,False,2.3229
mp-775485,Bi18 P6 O42,66,Monoclinic,8,1035.7232495094706,7.406226897207935,15.692776507719252,3.81531352,-6.782476553636363,-2.080539872694806,True,2.5842
mp-30304,Bi6 Sb2 O14,22,Triclinic,2,326.5701562513721,8.752918572910259,14.844098011426006,4.95989099,-6.364579114545457,-1.7795944595454571,False,2.168599999999999
mp-559422,Bi32 Au16 O72,120,Orthorhombic,61,1884.4066939830104,9.685087639121349,15.703389116525086,4.60721022,-5.745744655500001,-1.303107969833335,False,0.7795000000000001
mp-23356,Bi16 B8 O36,60,Monoclinic,14,810.4784090521937,8.207958604287226,13.507973484203228,4.02982584,-6.9832806125000015,-2.08657595738889,True,2.8354
mp-1196273,Bi32 B8 P8 O80,128,Orthorhombic,61,1832.4078151904787,7.522962852444902,14.315686056175615,3.74439307,-6.9738191684375,-2.152905881800596,False,2.8219000000000003
mp-23544,Bi16 Br8 O20,44,Monoclinic,4,893.5791885746245,7.996095106602252,20.308617922150557,2.98823076,-5.574506965454547,-1.613249207727276,False,2.651699999999999
mp-30130,Bi16 I8 O20,44,Monoclinic,4,965.4814716796741,8.04729385047113,21.94276071999259,3.8959387,-5.435704172499997,-1.494979854772725,False,2.3625
mp-30303,Bi8 O14,22,Triclinic,2,341.0743732873468,9.229974444804135,15.50338060397031,4.42867342,-6.132462206818184,-1.569201818181821,False,0.9108
mp-541772,Bi8 Ru2 Br4,14,Monoclinic,12,470.7517594555467,7.737745202004868,33.62512567539619,3.33151896,-4.484801556428571,-0.46931114928571505,False,0.5357000000000001
mp-541771,Bi8 Ru2 I4,14,Tetragonal,87,513.0449668351147,7.708372345591589,36.64606905965105,3.63592216,-4.305319639285707,-0.32209606642856503,False,0.165
mp-31289,Bi20 N4 O40,64,Monoclinic,14,1054.0651437893805,7.680874616374393,16.46976787170907,2.74099547,-6.328253720156251,-1.499000011093752,False,2.6161
mp-1214311,Bi6 As4 Pb1 O20,31,Triclinic,2,476.5556200810154,7.25031414781388,15.37276193809727,6.00749579,-6.429819547741936,-1.762317510322582,False,2.9694000000000003
mp-554249,Bi24 Cl12 O28 F4,68,Orthorhombic,62,1244.7389941750685,7.957507519910277,18.304985208456888,6.55676239,-5.640594412205882,-1.791452431617647,False,2.8698
mp-570417,Bi48 Pt8 Cl80,136,Orthorhombic,62,4568.806629293194,5.243866018703898,33.59416639186173,2.61796418,-3.9732143994852933,-1.1557575065441181,False,1.612499999999999
mp-570053,Bi32 As4 Au4 Cl36,76,Monoclinic,14,2304.117468451485,6.523073147792586,30.31733511120375,2.75962472,-3.837942532236842,-0.906302310526317,False,1.385199999999999
mp-680182,Bi72 Ir16 I24,112,Orthorhombic,62,3861.0409001122407,9.103738281701874,34.47357946528786,4.81088086,-4.334293756428571,-0.24434982821428702,False,0.5545
mp-561068,Bi2 As2 O8,12,Tetragonal,88,151.58198113378094,7.622289572065359,12.631831761148412,4.06930201,-6.49651725125,-1.771183774166667,False,2.8719
mp-567414,Bi4 Au4 Cl24,32,Triclinic,2,914.6315312138503,4.49281405725419,28.58223535043282,-0.54235465,-18.981739010625,-0.731505600624998,False,1.5926
mp-556601,Bi4 B4 Pb4 O16,28,Monoclinic,14,430.26429607165056,7.57958699538571,15.366582002558948,3.37485739,-6.9621135971428565,-2.094411144166665,False,2.8773
mp-2913080,Bi4 Br12,16,Monoclinic,14,691.496424150713,4.309906649201264,43.21852650941956,-1.29781382,-3.37273185625,-1.172513377500001,False,2.8826
mp-23072,Bi2 Br2 O2,6,Tetragonal,129,129.50609729692894,7.81849613632773,21.584349549488156,2.66047785,-5.047113350000004,-1.555466066666671,False,2.2251
mp-22939,Bi2 Cl2 O2,6,Tetragonal,129,113.58578538575841,7.614664760301017,18.930964230959734,3.42325128,-5.257924419999999,-1.695745048333333,False,2.5681000000000003
mp-27743,Bi1 F5,6,Tetragonal,87,87.48976145342537,5.769338760918803,14.581626908904228,-3.29028788,-14.226718183333332,-1.871315934166666,False,1.8137999999999992
mp-22849,Bi2 I6,8,Trigonal,148,367.81189633263233,5.324512983950062,45.97648704157904,0.56637604,-2.88190495625,-0.7663869175000011,False,2.5349
mp-22987,Bi2 I2 O2,6,Tetragonal,129,154.0010489653947,7.58848827566523,25.666841494232447,4.12884893,-4.788936188333333,-1.334933545,False,1.472999999999999
mp-1191266,Bi4 I4 O16,24,Orthorhombic,29,356.6571781190205,7.447156588693821,14.860715754959188,4.1284668,-5.436637793333332,-1.235655969166666,False,2.3939999999999992
mp-1102836,Bi4 Ir4 S4,12,Cubic,198,240.53229907895656,11.964283284095847,20.044358256579713,7.3925144,-6.041010856666666,-0.4187348375,False,0.6889999999999991
mp-1103228,Bi4 Ir4 Se4,12,Cubic,198,255.70916908845527,12.472296142674065,21.30909742403794,6.6982116099999995,-42.06413978166667,-0.33974397302083503,False,0.5346000000000001
mp-30012,Bi4 Kr4 F28,36,Monoclinic,14,614.7458740355426,4.600295087345924,17.07627427876507,-3.61094235,-11.589051282777778,-1.259169145185184,False,2.3847
mp-557993,Bi4 O8,12,Monoclinic,15,170.96578385970207,9.362232999004997,14.247148654975172,3.93896558,-6.055082899999999,-1.459764126666667,False,1.1596
mp-27133,Bi8 P8 S32,48,Orthorhombic,73,1180.3468529106285,4.144097131236569,24.590559435638095,3.01687883,-16.974261763958335,-0.36687069966270003,False,1.5094
mp-1227444,Bi1 Pb1 Br1 O2,5,Tetragonal,107,106.06848147333677,8.267326653823874,21.213696294667354,3.93511941,-5.41543906,-1.588329075,False,1.510199999999998
mp-23084,Bi2 Pb2 Cl2 O4,10,Orthorhombic,63,204.95523902001557,7.836737092505119,20.49552390200156,3.72168911,-5.549365916,-1.679936678,False,2.073699999999999
mp-1227389,Bi1 Pb1 I1 O2,5,Tetragonal,107,115.18327577015269,8.29069059039695,23.036655154030537,4.48073282,-5.257524144,-1.4530009430000002,False,1.7164000000000001
mp-1103098,Bi4 Rh4 S4,12,Cubic,198,240.8884546766583,9.483956501092914,20.074037889721527,6.757699,-5.69185743,-0.5609568475000001,False,0.34039999999999904
mp-1101765,Bi4 Rh4 Se4,12,Cubic,198,255.18630738971984,10.17319295238303,21.265525615809988,6.21358843,-32.79740730416667,-0.48071976885416706,False,0.23799999999999902
mp-23324,Bi4 S4 Br4,12,Orthorhombic,62,343.1261298289098,6.212864259187372,28.59384415240915,2.0326896,-4.108052325833337,-0.8862721883333371,False,2.032
mp-23318,Bi4 S4 Cl4,12,Orthorhombic,62,325.1120564496465,5.648961777257308,27.092671370803874,2.38971739,-4.305062416666665,-1.012750190833332,False,1.9636
mp-1227290,Bi1 Sb1,2,Trigonal,160,68.25111255856382,8.0468630402421,34.12555627928191,5.464771,-42.11122011,-0.0069253724999990005,False,0.1101