material_id,composition,nsites,crystal_system,space_group,volume,density,density_atomic,efermi,energy_per_atom,formation_energy_per_atom,is_gap_direct,band_gap
mp-1205713,Ba2 Y1 U1 O6,10,Cubic,225,171.72601799832464,6.745439182498907,17.172601799832464,5.31116336,-8.775486307,-3.642864564999999,False,0.8651999999999991
mp-1520624,Ba8 Y4 W4 O24,40,Cubic,201,619.8072903524679,6.894947026656483,15.495182258811699,3.5795295400000002,-8.42614422475,-3.12685046075,False,1.7928000000000002
mp-1205934,Ba2 Yb1 Mo1 O6,10,Cubic,225,144.74267722017825,7.3380656471436,14.474267722017824,2.13157746,-18.259440316000003,-3.117975154500001,False,2.2435
mp-1205759,Ba2 Yb1 U1 O6,10,Cubic,225,162.76185228514666,7.97530523980806,16.276185228514667,2.60857909,-24.149024157,-3.620553277000001,False,2.1684
mp-1078636,Ba4 Zn2 As4,10,Orthorhombic,72,310.35861726671953,5.242376649528831,31.035861726671953,2.56999806,-3.833403321,-0.94581561,False,0.6404000000000001
mp-1079130,Ba4 Zn2 Bi4,10,Orthorhombic,72,384.32106671254934,6.550398832307796,38.432106671254935,3.0773238,-3.316398849999996,-0.740846427999996,False,0.082399999999999
mp-1206097,Ba2 Zn1 Mo1 O6,10,Cubic,225,139.90959478307295,6.314118688410634,13.990959478307294,2.41635175,-7.103415072,-2.540304109,False,2.385199999999999
mp-9307,Ba2 Zn1 N2,5,Tetragonal,139,114.3393554417063,5.345536883012246,22.86787108834126,2.4028959,-4.922035323999998,-0.567185527999998,False,0.4771
mp-17911,Ba8 Zn4 O12,24,Monoclinic,15,424.971005567963,6.065268212549831,17.707125231998457,1.6780606100000002,-5.857909737083333,-2.534313652916667,False,2.6704
mp-5587,Ba8 Zn4 S12,24,Orthorhombic,62,653.5838953000139,4.433545301995248,27.232662304167246,2.04414281,-4.830555057083333,-1.911759691666665,True,2.0208
mp-1079149,Ba4 Zn2 Sb4,10,Orthorhombic,72,365.08876354400917,5.308639798698232,36.50887635440092,3.46640755,-3.621798104000001,-0.95065891,False,0.2922
mp-1078410,Ba2 Zn1 Te1 O6,10,Cubic,225,141.04458602176385,6.636046659826348,14.104458602176384,3.24105021,-6.160366102999999,-2.367489561666666,True,0.444399999999999
mp-568105,Ba2 Zr6 B1 Cl17,26,Tetragonal,87,698.6813820012848,3.411741742233204,26.87236084620326,2.52562088,-5.9105517423076925,-2.324829702660257,False,1.0883
mp-8335,Ba2 Zr1 O4,7,Tetragonal,139,119.77140138378309,5.959897098396696,17.110200197683298,1.8792550000000001,-8.027599675714287,-3.430814742857144,False,2.9787999999999992
mp-1202519,Ba12 Al8 As16,36,Orthorhombic,62,1071.6796531636242,4.745296093723967,29.768879254545116,3.08447536,-4.498031983055554,-0.950413470833332,True,1.0493
mp-17133,Ba12 Al8 N16,36,Orthorhombic,52,648.2082639062628,5.348608350006547,18.0057851085073,3.9851378200000003,-6.211531911111113,-1.033622193333334,False,1.566199999999999
mp-1202948,Ba12 Al8 P16,36,Orthorhombic,62,995.7819310157255,3.934399208889846,27.660609194881264,4.69080233,-4.842542270555555,-0.963656650396823,True,1.2821999999999991
mp-30905,Ba12 B8 N16,36,Orthorhombic,19,708.4527476844862,4.590563950687879,19.67924299123573,1.63463328,-7.007171447222223,-1.177302631481482,False,2.5859
mp-29302,Ba6 Ga4 S12,22,Monoclinic,15,608.1942481835408,4.061653626584356,27.645193099251856,1.94124601,-5.12311532909091,-1.7919085772727281,True,2.678199999999999
mp-19913,Ba6 In4 P8,18,Monoclinic,15,552.3512508444768,4.6027329881611525,30.686180602470934,3.650561869999999,-4.44550407388889,-0.785818917433863,True,1.1092
mp-1228324,Ba12 Na8 Sb16,36,Monoclinic,14,1328.0639678264429,4.726309425607399,36.890665772956744,3.52767652,-3.661710382777777,-0.8887802341954011,False,0.700399999999999
mp-554255,Ba12 P8 S32,52,Monoclinic,14,1377.5442210546644,3.522030847949599,26.49123502028201,2.42596397,-5.389380206538451,-1.5667072518681202,False,2.533599999999999
mp-31238,Ba9 Sb6 O18,33,Triclinic,2,680.2436564365897,5.503428570074368,20.613444134442112,2.45665713,-6.545911431515162,-2.57293931060607,False,2.9311
mp-27887,Ba6 Si8 P12,26,Monoclinic,11,638.2459691277096,3.69530786907131,24.54792188952729,4.51516783,-5.267592780769231,-0.6559744659890101,True,0.40529999999999905
mp-11692,Ba6 Si4 As8,18,Monoclinic,15,558.2204190229605,4.568179939627731,31.012245501275586,2.71758774,-4.723113342777776,-0.8022187861111091,True,0.8265
mp-17470,Ba12 Sn8 As16,36,Monoclinic,14,1215.2419315822292,5.187433594447794,33.756720321728594,3.04555542,-4.422536217222222,-0.816251921666667,True,0.851499999999999
mp-601867,Ba12 Sn8 P16,36,Monoclinic,14,1133.47560285456,4.531507496120864,31.48543341262667,3.53533503,-4.701465967777779,-0.763914564285714,False,0.9956
mp-29354,Ba9 Ta6 S24,39,Monoclinic,10,1008.5421873381878,5.089566194332099,25.860056085594557,4.00092948,-6.657345946666658,-1.842141604717939,True,1.108
mp-1203016,Ba18 Al18 As30,66,Trigonal,167,1971.7969826982514,4.383534836289307,29.875711859064417,2.9897150100000003,-4.550159304393939,-0.882498852348484,False,1.293599999999999
mp-1196964,Ba18 Al18 P30,66,Trigonal,167,1828.8585550027822,3.529046950812372,27.70997810610276,3.49184516,-4.930501309242424,-0.9240449513528131,False,1.4661
mp-1192376,Ba12 Al4 As12,28,Orthorhombic,64,931.5041182997485,4.732754922554564,33.26800422499102,2.55536507,-4.401425421785715,-1.04244424357143,False,0.6837999999999991
mp-1192373,Ba12 Al4 P12,28,Orthorhombic,64,868.0989371978529,4.069646128087007,31.00353347135189,3.04624922,-4.689131588214287,-1.010714270204082,False,0.670099999999999
mp-18439,Ba12 Al4 Sb12,28,Orthorhombic,64,1107.165107317316,4.824849141435625,39.541610975618426,3.17254862,-4.122889408928573,-0.9958173560714301,True,0.555099999999999
mp-524,Ba6 As28,34,Monoclinic,14,993.3231783751853,4.884319645929317,29.215387599270155,2.74006719,-4.631867536176471,-0.44724163764706004,False,1.2631000000000001
mp-9793,Ba6 B2 As2 O6,16,Hexagonal,194,380.6109995298713,4.761689830950284,23.788187470616958,2.42047753,-6.52681196,-2.533021692708333,False,1.523299999999999
mp-9712,Ba6 B2 P2 O6,16,Hexagonal,194,369.0023197671224,4.5159535129146615,23.06264498544515,2.66961217,-6.582381376875,-2.495422235476191,False,1.4667000000000001
mp-1228299,Ba6 Bi4 Ru2 O18,30,Triclinic,2,486.6339999416026,7.336479260632186,16.221133331386753,3.70171164,-6.709148578666667,-2.219612243666668,False,0.44660000000000005
mp-556407,Ba6 Bi4 Te2 O18,30,Trigonal,165,511.6802199628292,7.14956003425265,17.056007332094307,3.81523855,-6.415487939,-2.334691380444445,False,2.1188
mp-669415,Ba6 Bi12 Pb2 Se26,46,Monoclinic,11,1444.2784597012794,6.667419372851461,31.39735781959303,3.11368332,-4.529993745652174,-1.127531703933424,True,0.8085
mp-567666,Ba6 Bi2 N2,10,Hexagonal,194,350.63115470065736,6.014236453089481,35.06311547006574,2.9483435,-4.445894737999998,-0.8488473629999981,True,0.6466000000000001
mp-1019520,Ba6 Ca4 Si4 N12,26,Monoclinic,15,459.4501120597294,4.570850511220173,17.671158156143438,3.85073957,-6.600313586923077,-1.165819193846153,False,1.565
mp-1228693,Ba12 Ca12 Mo8 N32,64,Orthorhombic,19,1196.865910231233,4.6403106777922964,18.701029847363017,4.82078508,-7.3712048431250015,-1.110501928125002,True,2.2313
mp-1228277,Ba6 Ca2 Bi4 O18,30,Orthorhombic,71,497.80608828546855,6.7649253993429355,16.593536276182284,2.61188071,-6.423529262666666,-2.418579771666667,True,0.250399999999999
mp-1214569,Ba3 Ca1 Nb2 O9,15,Trigonal,164,229.81116407680162,5.649506371267708,15.320744271786774,2.05551185,-8.136302116666666,-3.303183195000001,False,2.646
mp-861914,Ba6 Co2 C6 N6,20,Hexagonal,176,419.9006906866025,4.341884475862578,20.995034534330124,3.0709038,-7.253677806000001,-0.6945606807500011,False,0.7976999999999991
mp-1281162,Ba6 Cr4 O16,26,Triclinic,1,427.50010917916416,5.002734094777693,16.442311891506314,2.3084671500000002,-7.602421522307693,-2.629597845384615,False,1.1478
mp-2760769,Ba6 Cr4 O16,26,Monoclinic,9,412.8442738562293,5.180329502296962,15.87862591754728,3.77850725,-14.79549300423077,-2.687984966153847,False,0.3043
mp-560798,Ba12 Dy8 P16 S64,100,Orthorhombic,60,2587.0104450156455,3.527533143638132,25.870104450156454,3.33722667,-5.6058713928,-1.4910984704761892,False,2.418999999999999
mp-1228336,Ba6 Dy4 Mo2 O18,30,Orthorhombic,71,482.8991591921178,6.718613970191636,16.09663863973726,2.68298483,-7.8687257850000005,-3.177327449555555,False,1.3959000000000001
mp-1228348,Ba6 Dy4 W2 O18,30,Orthorhombic,71,484.1512605917683,7.304196214893349,16.138375353058944,2.62540482,-8.096586321666667,-3.264355978222221,False,2.2084
mp-560534,Ba12 Er8 P16 S64,100,Orthorhombic,60,2568.854420882231,3.5770750792170283,25.688544208822307,3.39769292,-5.5965540928,-1.485833707942855,False,2.4204
mp-1228244,Ba6 Er4 Mo2 O18,30,Monoclinic,15,472.01174626942986,6.940554095752868,15.733724875647662,4.1852344200000005,-7.910409091333333,-3.225764984999999,True,2.063
mp-556259,Ba6 Eu2 Ru4 O18,30,Hexagonal,194,460.36899688596077,6.565267164982658,15.345633229532025,3.35224803,-7.7598975023333345,-2.484864778333334,False,0.021500000000000002
mp-556428,Ba6 Fe4 Br4 O10,24,Cubic,199,535.1015180489882,4.738471791423461,22.295896585374507,1.35982121,-6.670183176666666,-2.444294398749999,False,2.4063
mp-560330,Ba6 Fe4 Cl4 O10,24,Cubic,199,520.7337598407548,4.302223388225039,21.697239993364786,1.12701499,-6.793094417083332,-2.531939594999999,False,2.4471
mp-1228445,Ba6 Fe4 Te2 O18,30,Hexagonal,186,430.51017380481954,6.134905409793153,14.350339126827318,5.00124229,-7.036790367666667,-2.3453288891111113,False,1.701299999999999
mp-1228376,Ba6 Fe4 W2 O18,30,Hexagonal,186,427.786929168225,6.610572777330655,14.259564305607501,4.29223783,-7.868534111666666,-2.522751010666667,True,1.515899999999999
mp-1196108,Ba18 Ga18 P30,66,Trigonal,167,1821.669535964794,4.24426996767765,27.601053575224153,2.98690795,-4.580202515757572,-0.7694224690043251,False,1.2456
mp-1195592,Ba24 Ga8 As24,56,Orthorhombic,62,1890.542802604556,4.964157553556973,33.759692903652784,3.02098174,-4.256827434107143,-1.00034337125,False,0.6858000000000001
mp-1029573,Ba6 Ga2 N6,14,Hexagonal,176,327.43825478796765,5.311928679396825,23.388446770569118,2.30516985,-5.473136614285715,-0.644586031785714,False,0.36189999999999906
mp-541715,Ba12 Ga4 P12,28,Orthorhombic,64,868.268887388211,4.3958167794284755,31.009603121007537,2.799521,-4.522714730000002,-0.94679452734694,False,0.601
mp-28296,Ba24 Ga8 Sb24,56,Orthorhombic,62,2202.1386563988563,5.109396782798748,39.323904578551,3.0770429,-4.011500100714285,-0.986925163214284,True,0.34140000000000004
mp-684036,Ba12 Gd8 P16 S64,100,Orthorhombic,60,2591.217069274063,3.494891475637969,25.912170692740627,2.47429061,-6.3640654425,-1.4926727832428561,False,1.404399999999999
mp-17833,Ba12 Ge4 O4,20,Orthorhombic,62,633.6201367693964,5.2479375796067345,31.68100683846982,3.20250804,-4.505382821999999,-1.439800085999998,False,0.15300000000000002
mp-1200759,Ba12 Ge4 S20,36,Orthorhombic,62,1019.5055475527674,4.201872295518717,28.31959854313243,2.50810603,-5.313881547777779,-1.861464824166668,False,2.0632
mp-1228378,Ba6 Hf2 Ta8 O30,46,Monoclinic,7,662.92304444801,7.786420191530909,14.411370531478479,4.44763899,-9.501050213695653,-3.5270832964927523,False,2.4646999999999992
mp-559171,Ba12 Ho8 P16 S64,100,Orthorhombic,60,2578.7872870152287,3.551301134559748,25.787872870152288,3.32976047,-5.6009868106,-1.487869573342856,False,2.4239
mp-1228250,Ba6 Ho4 Mo2 O18,30,Monoclinic,15,476.62763127157234,6.84088665539728,15.887587709052411,4.19072083,-7.899918105,-3.211279244666666,False,2.1402
mp-1228643,Ba3 In2 Mo1 O9,15,Trigonal,164,225.01230466262342,6.505648094305731,15.000820310841561,3.68505208,-6.963793302,-2.520288537888889,False,1.8273000000000001
mp-20352,Ba3 In2 O6,11,Tetragonal,139,193.91205189949042,6.31645044621835,17.62836835449913,3.10318574,-6.225809970909092,-2.501897394848485,False,0.598399999999999
mp-1228476,Ba6 In4 W2 O18,30,Orthorhombic,71,453.5900098663373,7.098093961338573,15.119666995544577,3.53918996,-7.193555322666667,-2.609218550555555,True,2.6734
mp-620346,Ba12 In4 As12,28,Orthorhombic,62,963.3386794841705,5.181982526064888,34.40495283872038,2.83984208,-4.190820749285716,-0.9727541548809541,True,0.5236000000000001
mp-1214916,Ba6 In2 Ir4 O18,30,Hexagonal,194,446.5594330912881,7.847764593504196,14.88531443637627,4.40466772,-6.863552437333334,-2.148578039444445,False,0.016399999999999002
mp-1106080,Ba6 Ir2 C6 N6,20,Hexagonal,176,440.53599860348965,5.143294141168917,22.026799930174484,3.26985071,-7.452346738,-0.72272786675,False,0.6643
mp-1029626,Ba6 Ir2 N6,14,Hexagonal,176,326.0456955295646,6.58233134377769,23.288978252111757,4.24624747,-6.235723642142858,-0.577124751428572,True,0.011199999999999
mp-1228133,Ba3 Lu2 Mo1 O9,15,Trigonal,164,223.10914331215184,7.456486878845782,14.87394288747679,2.28486036,-7.938121983999999,-3.259615391888888,False,1.898299999999999
mp-6474,Ba3 Mg1 Nb2 O9,15,Trigonal,164,214.1322118289584,5.940852812742581,14.275480788597227,2.43097144,-8.074157840000002,-3.266047576,False,2.647999999999999
mp-16978,Ba6 Mg2 Sb4 O18,30,Hexagonal,194,446.9882727060557,6.120756014948521,14.899609090201857,3.34611634,-6.709334508333334,-2.697531417666667,True,2.6494
mp-19188,Ba6 Mn4 O16,26,Trigonal,166,409.24304517266705,5.273663793647016,15.740117122025655,1.6519427100000001,-7.32473036423077,-2.427450099297083,False,1.6908999999999992
mp-20921,Ba12 Mn4 Nb8 O36,60,Trigonal,164,878.7516723145294,6.022157852216238,14.645861205242158,3.01115303,-8.437679266333333,-3.127465983862069,False,1.7737999999999992
mp-17341,Ba6 Mn2 Sb4 O18,30,Monoclinic,15,460.93237630136986,6.156306305601205,15.364412543378995,4.11108756,-7.075576303666667,-2.561670194528736,False,1.5103
mp-554339,Ba6 Mo4 P8 O36,54,Triclinic,2,825.3386884807072,4.087254576959608,15.284049786679763,1.58471855,-7.968383527037037,-2.850849555502646,False,2.391499999999999
mp-8863,Ba24 Mo8 N32,64,Orthorhombic,61,1397.1161214181627,5.362230606701805,21.829939397158793,2.39093325,-7.266317900625001,-1.021857161875001,False,1.9187999999999992
mp-1214668,Ba6 Na6 C10 O30,52,Hexagonal,186,691.6966661971969,3.7498298101102963,13.30185896533071,0.55084542,-7.378411465769231,-2.372841092947613,False,0.007099999999999
mp-556316,Ba6 Na2 Bi2 O12,22,Trigonal,167,397.03118588586443,6.189497901952573,18.04687208572111,1.8782404,-6.133820072727272,-2.435961351034482,False,1.7096
mp-9745,Ba6 Na2 Ru2 O12,22,Trigonal,167,366.44720469831395,5.728096149603655,16.656691122650635,2.82220823,-6.632766246818182,-2.445419504216302,False,0.528099999999999
mp-1190024,Ba6 Na2 Sb2 O12,22,Trigonal,167,379.01980268555747,5.7193790759259056,17.228172849343522,2.43581612,-6.368444388636363,-2.648861400579937,False,2.8068
mp-1214502,Ba3 Nb2 Cd1 O9,15,Trigonal,164,228.25145772589224,6.214336688478525,15.216763848392816,1.91289671,-7.782821966666668,-3.019409024333334,False,2.8138
mp-1214516,Ba12 Nb8 Ni4 O36,60,Trigonal,164,849.6242205368007,6.257972418634224,14.160403675613345,2.4055464,-8.097179164166667,-3.012424455833333,False,2.680799999999999
mp-7249,Ba3 Nb2 Zn1 O9,15,Trigonal,164,215.30897722068136,6.225391844031455,14.353931814712091,2.11558013,-7.854704578666667,-3.071309408333333,False,2.7287
mp-6101,Ba3 Nb6 Si4 O26,39,Hexagonal,189,557.8756216282112,4.458099829156638,14.304503118672082,1.00711561,-8.800221275128207,-3.243477344102567,False,2.281
mp-18177,Ba12 Nb4 As12 O4,32,Orthorhombic,62,1049.8912716205623,4.717378311949632,32.80910223814257,2.01428731,-5.865816620937499,-1.5137468131249991,False,1.255
mp-1195,Ba6 P28,34,Monoclinic,14,888.0284343553575,3.162453986024103,26.11848336339287,3.16383658,-5.304524830588235,-0.50608046735294,False,1.8930999999999991
mp-32606,Ba24 P16,40,Tetragonal,122,1452.1553993869104,4.335496485901339,36.30388498467276,2.56300498,-4.298713955000002,-0.981139580857144,True,0.250799999999999
mp-14289,Ba6 P8,14,Orthorhombic,43,430.26709162371327,4.136235979382881,30.73336368740809,3.41340133,-4.865465115714282,-0.948490984081629,True,0.48389999999999905
mp-1205571,Ba3 Pu1 O6,10,Cubic,225,187.8319152700342,6.647900321439699,18.783191527003417,4.6347384,-8.014940303,-2.996677969874999,False,0.3789
mp-1105268,Ba6 Rh2 C6 N6,20,Hexagonal,176,441.3223100953963,4.46203535568454,22.066115504769815,3.246934399999999,-7.268249086500001,-0.686042846250001,False,0.626599999999999
mp-1029537,Ba6 Ru2 N6,14,Hexagonal,176,331.325109393483,5.563823689535102,23.666079242391643,3.81071235,-6.329782614285713,-0.6089025292857131,True,0.6312000000000001
mp-29911,Ba12 Sb8 O4,24,Orthorhombic,55,831.5315286764506,5.363850240109869,34.647147028185444,3.40761221,-4.835863575416667,-1.6753821912500002,False,0.35939999999999905
mp-1195624,Ba12 Sb8 S28,48,Monoclinic,15,1457.6758543085587,4.009674196276463,30.36824696476164,4.20080223,-5.097484278333334,-1.515530588958332,False,1.9021999999999992
mp-1194583,Ba12 Sb8 Se28,48,Monoclinic,15,1629.8010343031842,4.924032147137038,33.95418821464967,2.2128159800000002,-4.652535036458333,-1.44534273282552,False,0.9106000000000001
mp-555414,Ba12 Sb16 O4,32,Monoclinic,14,1121.3922101584567,5.419788392220981,35.04350656745177,3.80344864,-4.765764786875,-1.363153438749999,False,0.301299999999999
mp-1214632,Ba12 Sb4 I12,28,Cubic,214,1433.4893870293204,4.237177578486236,51.19604953676144,1.99773715,-3.845136383571429,-1.779712968571429,False,1.4021
mp-12814,Ba6 Sb2 N2,10,Hexagonal,194,339.61884922232997,5.356336708477919,33.961884922233,3.31896332,-4.570453706999999,-0.9256129459999981,True,0.455499999999999
mp-569842,Ba12 Si4 I8,24,Orthorhombic,70,1079.5160645788005,4.269347398452383,44.979836024116686,3.23691166,-3.618757122083332,-1.247045775416666,False,0.25020000000000003
mp-755363,Ba12 Si4 O4,20,Orthorhombic,62,630.4347580643596,4.805034837985734,31.52173790321798,3.07219881,-4.5428334790000005,-1.316792708000001,False,0.421699999999999
mp-1191360,Ba6 Sm2 In2 S12,22,Trigonal,167,611.5840628499842,4.721902261789785,27.799275584090193,2.76530986,-5.510097588181818,-2.049657396969696,False,1.9722
mp-2205007,Ba6 Sn4 O14,24,Tetragonal,139,375.2053554160523,6.7393981100416624,15.633556475668847,5.68867721,-16.751405289583335,-2.520216380833334,False,2.4833
mp-770846,Ba6 Sn4 O14,24,Orthorhombic,63,384.566755701861,6.575342838861556,16.023614820910876,3.30782364,-6.70320527375,-2.668888976666666,False,1.820699999999999
mp-556291,Ba12 Sn8 S28,48,Monoclinic,14,1429.020892697478,4.061723755049394,29.771268597864125,2.17603997,-5.145085680416666,-1.583036888541665,False,2.3703
mp-1214485,Ba3 Ta2 Co1 O9,15,Trigonal,164,202.90114683405315,7.994149610878898,13.52674312227021,2.6753925,-8.57450195533332,-3.164112243977765,False,2.229399999999999
mp-1214505,Ba12 Ta8 Mn4 O36,60,Trigonal,164,869.85550081044,7.42830513736294,14.497591680174,3.03439264,-8.819092332,-3.2734627158398473,False,2.3396
mp-1195068,Ba12 Ta8 Se36,56,Monoclinic,14,1661.7346515426332,5.933794719184651,29.673833063261306,3.40275675,-5.9302675391071435,-1.576411595947172,True,1.202
mp-1228489,Ba6 Ta8 Ti8 O42,64,Monoclinic,15,862.651596393793,6.403175857705355,13.478931193653017,4.16925857,-9.388966591875,-3.491660836802084,True,2.1932
mp-1228225,Ba6 Ta8 Ti2 O30,46,Monoclinic,7,650.4202548218753,7.269128159335929,14.13957075699729,2.06907378,-9.344799995217391,-3.460472078594203,False,2.3532
mp-1228561,Ba6 Ta12 Fe4 O42,64,Monoclinic,15,893.0863347093449,7.234065451763633,13.954473979833514,3.93330237,-9.35688126359375,-3.175452713562501,True,2.2005999999999992
mp-18090,Ba12 Ta4 As12 O4,32,Orthorhombic,62,1038.73535593784,5.331020730084488,32.4604798730575,2.04653414,-6.111102600312499,-1.538329979666666,False,1.3151
mp-1195508,Ba18 Ta6 N18 Cl12,54,Hexagonal,185,1299.9975212537909,5.409701559340156,24.074028171366496,2.63614245,-6.974145555555555,-1.825726533592592,False,1.9944000000000002
mp-554264,Ba12 Tb8 P16 S64,100,Orthorhombic,60,2596.2951919657785,3.496627944321598,25.962951919657783,3.39584312,-5.610727216500001,-1.49439524657619,False,2.4175
mp-1228418,Ba6 Tb4 W2 O18,30,Triclinic,2,486.2607380530605,7.223680931379778,16.20869126843535,2.44972093,-8.094538717333332,-3.259709961222221,False,2.3808
mp-17009,Ba6 Te4 O18,28,Hexagonal,194,432.8007042420203,6.224522097447718,15.457168008643581,2.81225126,-6.429251879285716,-2.3881671898809542,True,2.381599999999999