material_id,composition,nsites,crystal_system,space_group,volume,density,density_atomic,efermi,energy_per_atom,formation_energy_per_atom,is_gap_direct,band_gap
mp-557340,Ge9 Pb15 O33,57,Trigonal,143,1027.93525511909,6.929698297816666,18.03395184419456,3.05682565,-6.4138464589473685,-1.842273302631579,False,2.501
mp-1199965,Ge12 Rh8 S12,32,Trigonal,148,575.1672736870413,6.004218071773253,17.97397730272004,6.12292376,-5.8531949896875,-0.7265977387499991,False,0.5642
mp-976401,Ge12 Rh8 Se12,32,Trigonal,148,633.853532912686,6.92254797908842,19.807922903521437,5.25165348,-5.5655278756249995,-0.6798486583789051,True,0.297299999999999
mp-21945,Ge24 Ru16,40,Orthorhombic,60,607.6706385819786,9.182948736094252,15.191765964549464,6.4640004,-18.826466805749998,-0.333466139749998,False,0.3814
mp-680333,Ge16 Se36,52,Orthorhombic,29,1634.0416289395935,4.069741392228336,31.423877479607565,0.75382139,-4.406929842692307,-0.564213325853364,True,1.2221
mp-541844,Ge20 Ir16,36,Tetragonal,116,586.2315530223412,12.826625454437714,16.284209806176147,6.35552467,-31.355996176666665,-0.37851821,False,0.1279
mp-9548,Ge6 As6,12,Monoclinic,12,296.32059750212716,4.9614870568336435,24.693383125177263,3.74881154,-14.350048868333333,-0.060294584583334004,False,0.5112999999999991
mp-17524,Ge8 As16,24,Orthorhombic,55,604.6222314840644,4.8882363369983794,25.192592978502685,3.23992241,-14.4914370675,-0.06242388249999901,False,0.719599999999999
mp-1224371,Ge2 As2 Au2,6,Monoclinic,5,130.69826507476623,8.754553610048221,21.783044179127703,3.64652031,-26.49281601,-0.10465977083333101,False,0.1764
mp-29249,Ge8 As8 Se8,24,Orthorhombic,52,647.8148922124764,4.6451289805219975,26.99228717551985,2.0560082,-4.591360766666668,-0.328340144947918,False,1.4797
mp-541610,Ge8 Br16,24,Monoclinic,14,847.869747237202,3.641964924077439,35.32790613488341,-0.70840683,-3.56029183375,-0.927984858749999,False,2.597
mp-557432,Ge4 Cl4 O8 F20,36,Orthorhombic,20,524.4739369670099,2.977199306801479,14.56872047130583,-2.62626196,-4.6938983361111095,-1.8120367205555552,False,1.7275
mp-27922,Ge3 I6,9,Trigonal,164,343.1439610400316,4.739246027910595,38.12710678222574,1.39407321,-3.152010565555555,-0.594992870555555,False,2.0217
mp-23266,Ge8 I32,40,Cubic,205,1860.8356559137858,4.142400755833911,46.52089139784464,-0.4076651,-2.730115815499999,-0.586300152499999,True,1.9977
mp-470,Ge2 O4,6,Tetragonal,136,56.00426327829353,6.20512814957392,9.334043879715589,5.3453888,-6.996305618333334,-2.156655663333334,True,1.2157
mp-1095275,Ge6 P6,12,Monoclinic,12,270.6650406842001,3.814043347529472,22.555420057016676,5.32927735,-11.446736846666667,-0.009709900654762,False,0.48890000000000006
mp-554699,Ge6 Pb6 O18,30,Trigonal,148,513.9167066238759,6.355755299726998,17.130556887462532,1.80417197,-6.565139740999998,-1.929228152999997,False,2.7131
mp-624190,Ge4 Pb4 S12,20,Monoclinic,14,517.5790037198703,4.825704315060559,25.878950185993517,2.88788725,-4.882144105500001,-0.731993379999999,False,1.757899999999999
mp-541785,Ge2 Pd2 S6,10,Monoclinic,12,228.1245165560433,4.007212268784747,22.812451655604328,2.16332321,-5.094248789000001,-0.6506511154999991,False,1.3441
mp-1101755,Ge4 Pt4 S4,12,Orthorhombic,29,205.33518286305315,9.697536277919973,17.111265238587762,6.2920032,-5.694936455833333,-0.750762874999999,False,1.019599999999999
mp-20817,Ge4 Pt4 Se4,12,Orthorhombic,29,222.98135412951086,10.327003852183793,18.581779510792572,4.85235922,-5.438446791666668,-0.7084225741145841,False,0.6596000000000001
mp-2242,Ge4 S4,8,Orthorhombic,62,175.6988115830953,3.958290699903206,21.962351447886913,3.29336013,-4.8813997425,-0.50070603125,True,1.237599999999999
mp-572892,Ge16 S32,48,Monoclinic,14,1312.4613676311556,2.768684046510788,27.342945158982406,0.07597569,-4.962636858125,-0.662721194791666,False,2.2646
mp-700,Ge4 Se4,8,Orthorhombic,62,198.83584123189982,5.064232302122257,24.854480153987478,2.74902105,-4.511172757499999,-0.451703091171873,False,0.8988
mp-540625,Ge16 Se32,48,Monoclinic,14,1488.2818239048045,4.115928916643514,31.005871331350093,0.044774430000000004,-4.450939352083334,-0.5793224153125001,False,1.7063000000000001
mp-938,Ge1 Te1,2,Trigonal,160,55.908968810771796,5.947280906242025,27.954484405385898,5.85044348,-19.68006894,-0.035467995000001,False,0.5565
mp-1224373,Ge4 Te4 Pt4,12,Cubic,198,249.36766571565295,10.529848672732271,20.780638809637747,7.02485565,-30.75256693333333,-0.49359400333333203,False,0.255899999999999
mp-706632,H60 Rh4 Br12 N20,96,Orthorhombic,62,1046.8759584521729,2.7140902676707723,10.904957900543467,-0.60958104,-4.9834422429166665,-0.612857543697916,True,2.6639
mp-28281,H16 I12 N4,32,Orthorhombic,62,700.2454382634817,3.78234842718481,21.882669945733802,1.12931891,-3.8484520853125,-0.5370794171875001,False,1.575899999999999
mp-1197921,H16 S16 N4,36,Monoclinic,12,1193.5103000078398,0.814184203393373,33.15306388910666,-1.4132155100000001,-4.724413688611111,-0.44970460305555404,False,0.4198
mp-1201215,H14 Au2 N8 O30,54,Monoclinic,15,553.9433927747375,2.997908743043099,10.258210977309954,-1.44735134,-5.920795999259259,-0.9351451427314821,False,1.9431
mp-643735,H16 Pd2 N4 Cl12,34,Monoclinic,14,475.3051504284012,2.481977109516076,13.979563247894152,-0.10155401,-4.358312240882353,-0.822487205,True,1.0278
mp-24227,H8 Pt1 N2 Cl6,17,Cubic,225,250.91085397294273,2.937610214262392,14.759461998408396,-0.036942340000000004,-4.4376443988235295,-0.849392803529412,True,1.7803
mp-28143,H32 S20 N8,60,Monoclinic,14,796.2027202931057,1.638442334360217,13.270045338218429,1.5257840900000001,-4.7764147930000025,-0.47443580383333506,True,2.1947
mp-697283,H32 W4 S16 N8,60,Orthorhombic,62,849.5006386643046,2.7223587667103972,14.15834397773841,0.50294516,-5.483418918166665,-0.593455218166664,True,2.1658
mp-1224602,H9 Au1 Cl4 O4,18,Triclinic,1,281.50280775039533,2.4294218693814162,15.639044875021963,-1.5995218100000002,-4.514974042777778,-1.125174311180555,False,1.4877
mp-1203251,H18 Rh2 N6 Cl6,32,Monoclinic,11,388.0632105323062,2.228149420621577,12.126975329134568,-0.06598296000000001,-5.007294498749999,-0.7272152828906241,False,2.5806
mp-1201974,H12 C24 N36,72,Monoclinic,8,915.0204775724616,1.460140627353368,12.708617744061966,1.7330269600000001,-7.999713154583333,-0.18849137812499903,False,2.5302
mp-2929431,H2 I6,8,Triclinic,2,362.17229417996265,3.500340718582557,45.27153677249533,0.05597679,-2.26183669375,-0.27003562281249904,False,1.1496
mp-697084,H4 Pb4 I4 O4,16,Orthorhombic,62,360.2084080850585,6.47441718919521,22.513025505316158,2.93891599,-4.609981755624999,-1.2150349734374981,False,2.7209
mp-765597,H4 S8 I4 O32,48,Monoclinic,14,713.0878095030484,2.98103513819232,14.85599603131351,0.18610227000000001,-5.819264480208333,-1.4209656278125,False,2.8262
mp-602659,H6 Xe6 F42,54,Trigonal,148,1027.4799046728376,2.572453314740982,19.027405642089587,-5.98850768,-2.876387232037036,-1.008692455648148,False,2.930599999999999
mp-14444,Hf2 P4 S12,18,Orthorhombic,43,494.6769227250391,2.9058441163678292,27.48205126250217,0.69215578,-13.17347144,-0.7995200503141521,False,2.3179
mp-29420,Hf4 Se16 Cl24,44,Tetragonal,138,1284.6415537660553,3.655746064011276,29.196398949228527,-0.33485914,-13.70102623909091,-1.036272630113638,True,1.3426
mp-571313,Hf2 Se4 Cl24,30,Orthorhombic,43,849.7374277608858,2.977566962223848,28.32458092536286,-0.04667537,-10.762606789333335,-0.922353281208334,False,2.799
mp-29419,Hf1 Te4 Cl6,11,Triclinic,2,358.1197146473624,4.180600077360525,32.556337695214765,0.5705687700000001,-17.786905689090908,-1.083728778636363,False,1.2626
mp-1198074,Hf5 Tl20 S20,45,Triclinic,2,1261.5364482359141,7.399374699528846,28.034143294131425,3.43406889,-5.016841644222223,-1.017228781259262,False,1.4675
mp-1198311,Hf5 Tl20 Se20,45,Triclinic,2,1400.51069827881,7.777163345885484,31.122459961751332,3.16082138,-4.647637667555556,-0.933557288967596,False,1.3377
mp-984696,Hf3 Tl12 Te12,27,Trigonal,148,914.8209169873224,8.203161497455953,33.882256184715644,4.71572062,-4.227344000000004,-0.66997721444445,False,0.504999999999999
mp-35799,Hf4 Bi4 O14,22,Monoclinic,5,313.1868938138743,9.405201194483269,14.23576790063065,3.2423564,-8.608873033636355,-2.9424936049999912,False,2.936799999999999
mp-780075,Hf16 N16 O8,40,Triclinic,1,502.4721137874246,10.601411565809128,12.561802844685614,4.18680113,-10.84132030975,-2.533541398749999,False,1.9895
mp-1017567,Hf2 S1 N2,5,Trigonal,164,70.60806428405242,9.808253112103902,14.121612856810483,5.79567366,-25.367385816000002,-2.048319575062504,False,0.8851000000000001
mp-1224490,Hf2 Sb2 Pb4 O13,21,Orthorhombic,44,311.36924654180405,8.73171545274764,14.827106978181146,4.31385908,-7.530771466666667,-2.419035186428571,False,1.7838
mp-1029330,Hf2 Se1 N2,5,Trigonal,164,74.31419405511588,10.366966305393985,14.862838811023176,5.46005967,-26.525234578,-1.9508561073125001,False,0.6071000000000001
mp-1212249,Hf6 Ag2 Hg6 F40,54,Hexagonal,176,868.3831289884491,6.215004719678908,16.08116905534165,-1.60542392,-5.707053100555556,-3.043328345709878,True,0.760899999999999
mp-776470,Hf12 N16,28,Orthorhombic,62,335.4955447440837,11.710480923591549,11.981983740860132,5.27134128,-26.54098193607143,-1.9739463853571442,True,1.2648000000000001
mp-1212441,Hf6 Ni6 Sb8,20,Cubic,220,368.35623418348706,10.806418717770299,18.41781170917435,8.90422995,-7.016432499500001,-0.6436342905000001,False,0.7419999999999991
mp-1224517,Hf3 Te1 Pb4 O13,21,Trigonal,160,314.4140622995607,8.977612420678824,14.972098204740988,5.59944568,-7.964853777142857,-2.622522618650793,False,1.7083
mp-570700,Hf3 Tl2 Cu2 Se8,15,Monoclinic,12,376.14769211466904,7.518090288305372,25.0765128076446,3.99606806,-5.9222421359999995,-1.203561037027778,False,0.5025000000000001
mp-1212496,Hf12 B2 Cl28,42,Orthorhombic,64,1021.7138952480553,5.129586843079555,24.32652131542989,2.53393458,-19.270980473571427,-1.9191237544047661,False,0.016099999999999
mp-1212485,Hf12 C2 Cl28,42,Orthorhombic,64,1006.374791008265,5.211730757521839,23.961304547815832,3.9550928,-6.6673675573809525,-2.150634277738096,False,1.3758
mp-568346,Hf2 Br2 N2,6,Orthorhombic,59,130.04308186387354,6.956648483503007,21.673846977312255,1.583977969999999,-8.649738838333334,-2.005601068333334,True,2.1298
mp-3650,Hf2 Cu4 Te6,12,Monoclinic,12,299.80310999049266,7.62557268855877,24.98359249920772,5.86648064,-5.280052806666663,-0.682466131666661,False,0.0517
mp-567817,Hf2 Ge2 Te8,12,Orthorhombic,36,371.40047934841243,6.809632112518721,30.950039945701036,5.41457564,-27.314779386666668,-0.532731018333336,False,0.33070000000000005
mp-571445,Hf2 Hg6 Se4 Cl12,24,Monoclinic,14,703.2972339202075,5.43471806371026,29.30405141334198,-0.36165138,-3.843438810416666,-1.429331735598959,False,2.5501
mp-1198529,Hf8 Hg32 As16 Cl48,104,Orthorhombic,61,3265.320274106299,5.465403924504257,31.397310327945185,-0.70485456,-3.634148555192307,-1.201273244038463,True,1.3812
mp-1202310,Hf8 Hg32 P16 Cl48,104,Orthorhombic,61,2991.657066837693,5.57505764797708,28.765933334977817,-0.26876707,-3.754156378846153,-1.206611684175825,True,2.0914
mp-569059,Hf4 I16,20,Monoclinic,15,869.1178930023002,5.243518504521639,43.45589465011501,0.83311872,-4.427257389000002,-1.216609491000001,False,2.3487
mp-567441,Hf2 I2 N2,6,Trigonal,166,127.29091836383817,8.333322243567409,21.215153060639697,3.96439896,-8.266002501666662,-1.659509371666661,False,0.9778000000000001
mp-1245813,Hf2 Mg2 N4,8,Tetragonal,141,88.66894585694138,8.644883761622744,11.083618232117672,5.47120103,-8.722240614999999,-1.656186981249999,True,0.8472000000000001
mp-541911,Hf2 N2 Cl2,6,Trigonal,166,104.79245994829515,7.224172087505387,17.465409991382526,2.84487805,-22.29506331,-2.150861657083332,False,2.2055
mp-2713909,Hf6 Nb6 P18 O72,102,Trigonal,161,1552.6765105899508,3.569740080374329,15.222318731274028,-0.14555493,-8.719194905784315,-3.090933334838936,False,2.9362
mp-924128,Hf1 Ni1 Sn1,3,Cubic,216,55.87207864201944,10.577284908828306,18.62402621400648,7.18349144,-7.213027586666665,-0.630728398333329,False,0.386899999999999
mp-985829,Hf1 S2,3,Trigonal,164,69.47166295179909,5.79919885634548,23.15722098393303,2.3144879400000002,-22.213491783333335,-1.806353931875001,False,1.2237
mp-9922,Hf2 S6,8,Monoclinic,11,167.9432437929641,5.431896671846112,20.992905474120512,3.27559562,-18.68718625375,-1.373083094609374,False,1.1326
mp-1224358,Hf1 Sb4 Mo1,6,Monoclinic,8,138.58759519445024,9.123837391577288,23.097932532408375,8.20445755,-29.242637935,-0.23452830999999702,False,0.1391
mp-985831,Hf1 Se2,3,Trigonal,164,78.74332002833815,7.0942137973591795,26.247773342779382,2.55171849,-26.15645825,-1.564946299374999,False,0.5342
mp-866062,Hf1 Si1 Ru2,4,Cubic,225,57.93254776336947,11.715142542101077,14.483136940842368,8.76582726,-27.0636156275,-0.87005298375,False,0.169499999999999
mp-11869,Hf1 Sn1 Pd1,3,Cubic,216,63.06881551332067,10.626912406806408,21.022938504440223,6.43710802,-31.73468563,-0.782001370000003,False,0.033800000000000004
mp-8725,Hf4 Sn4 S12,20,Orthorhombic,62,492.4676860327046,5.305913745266324,24.62338430163523,3.72188642,-20.087042453000002,-1.286523169687501,False,1.1981
mp-1212434,Hf4 Te28 Se4 Cl24,60,Monoclinic,14,2061.9756552499775,4.391760533909598,34.36626092083296,2.09214667,-4.095300142333333,-0.992133571600694,True,1.0147
mp-1189341,Hf2 Tl4 Pb2 Se8,16,Monoclinic,15,466.23167072456835,7.908904502123943,29.13947942028552,4.24094523,-5.10051272375,-1.050959443255209,False,0.6334000000000001
mp-1102545,Hf2 Tl4 Se6,12,Monoclinic,11,342.78470167259434,7.9846680078623224,28.56539180604953,3.8032954,-5.320310621666664,-1.122332672282985,False,0.6963
mp-9396,Hf2 Tl2 Cu2 S6,12,Orthorhombic,63,256.9905352757109,7.012182314645516,21.415877939642574,4.86807368,-6.055692615833332,-1.248534862638887,False,0.7967000000000001
mp-9397,Hf2 Tl2 Cu2 Se6,12,Orthorhombic,63,291.4186664517939,7.787045323111618,24.284888870982826,4.47537098,-5.572848469999999,-1.08691476172743,False,0.41999999999999904
mp-505679,Hf4 V8 O28,40,Cubic,205,697.2273396013662,3.737912637146308,17.430683490034156,-1.691398889999999,-9.162428347749998,-2.8863555272499983,False,2.7436
mp-1014251,Hf1 Zn1 N2,4,Trigonal,156,47.97587059517867,9.41142197716244,11.993967648794667,4.06665717,-19.32228477,-1.242404935625,False,2.3179
mp-3810,Hg1 As2 O6,9,Trigonal,162,103.82148084854546,7.140273720118076,11.53572009428283,2.22857121,-5.836152133333333,-1.465298451944445,False,0.7083
mp-29170,Hg2 Au4 F16,22,Tetragonal,124,345.95923143530183,7.166217922480215,15.725419610695537,-2.39848593,-17.251372934545454,-1.292650168863637,True,1.573799999999999
mp-554921,Hg2 Bi4 S8,14,Monoclinic,12,366.4148000992756,6.768877831478459,26.17248572137683,3.2973638100000002,-4.102446295714283,-0.581992163214284,True,1.1861
mp-761037,Hg2 Cl4 O12,18,Monoclinic,4,276.0372939311868,4.421398849321563,15.335405218399266,-0.62700341,-4.176794112222222,-0.43295814916666703,False,2.6494
mp-23407,Hg2 I4 O12,18,Monoclinic,4,284.9834370398994,6.4140777698363625,15.8324131688833,2.10665207,-4.476183195,-0.8044650508333331,True,2.6932
mp-27779,Hg4 Mo24 Cl56,84,Cubic,201,2158.89606822273,3.915251970051361,25.701143669318213,1.50855369,-14.933498147619048,-1.031887303452381,True,1.73
mp-15994,Hg8 P16 O48,72,Orthorhombic,61,967.97182670578,4.920470377982254,13.444053148691388,0.38511951,-6.735096833194437,-2.198609597837295,True,2.5782
mp-754065,Hg1 Sb2 O6,9,Trigonal,162,119.68697684837183,7.493444992406346,13.298552983152426,2.98304406,-5.870987935555555,-1.6203834302777782,False,0.5173000000000001
mp-542596,Hg4 Sb16 S32,52,Monoclinic,15,1309.9120165734464,4.787490884560441,25.190615703335506,4.1501674,-4.361878928846144,-0.5209132721153741,False,1.258
mp-540925,Hg8 As4 F24,36,Monoclinic,14,607.2073956799209,6.454933571243915,16.866872102220025,-0.64515138,-16.548800768611112,-1.859988353888891,False,1.4207
mp-3167,Hg2 Ge1 Se4,7,Tetragonal,82,190.64207031099318,6.878131763845744,27.234581472999025,1.61949291,-3.248963432857144,-0.502389455625003,True,0.43360000000000004
mp-28136,Hg8 I4 O4,16,Monoclinic,15,422.20712225294795,8.55951947774711,26.387945140809247,1.06356869,-2.314043820000002,-0.541214396250005,False,0.9192
mp-558802,Hg4 Mo2 O8,14,Monoclinic,15,230.5991164629462,8.081190509735118,16.471365461639014,0.48853849,-5.822510665714288,-1.357248065000004,False,1.8942
mp-5824,Hg8 N4 O16,28,Monoclinic,14,429.5496859415413,7.40965970916495,15.341060212197904,-0.44001223,-4.846610129285714,-0.739543580714287,False,1.5703
mp-28455,Hg4 P4 O14,22,Triclinic,2,293.8447754557699,6.500130867622658,13.356580702534995,1.19963644,-6.162023339090909,-1.972385324480519,False,1.484199999999999
mp-27171,Hg2 P2 S7,11,Monoclinic,5,263.4238808039259,4.334298162827825,23.947625527629626,1.92581662,-4.164754943636364,-0.490317843798701,False,1.809499999999999
mp-28875,Hg4 P6 Cl2,12,Monoclinic,15,268.26364091791896,6.555831247049422,22.35530340982658,3.0069363,-22.229110731666665,-0.24673058523809702,False,1.1347
mp-561472,Hg8 P4 O12 F4,28,Orthorhombic,72,530.0687805636511,6.254725514231465,18.931027877273255,-0.232026899999999,-5.144883202142857,-1.88880420352041,True,1.452
mp-7461,Hg4 S2 O8,14,Monoclinic,13,236.17532142063288,6.992184940501769,16.869665815759493,-0.19330883000000001,-4.85226468,-1.345186442500002,False,1.9921000000000002
mp-557637,Hg8 Se4 O12,24,Orthorhombic,72,499.54456884666564,7.022349302594426,20.814357035277734,-0.40853494,-4.08520391,-0.9253474820572931,True,2.328999999999999
mp-30123,Hg16 Se8 O40,64,Monoclinic,14,980.9055503613971,7.585883234571847,15.32664922439683,-0.01871328,-4.5261938790625,-0.91931130685547,False,1.0118
mp-570125,Hg8 Te4 Br12,24,Monoclinic,14,781.2725662269381,6.533499541817481,32.55302359278909,0.14557468,-2.177913859583332,-0.7323322640277781,False,1.882099999999999
mp-29894,Hg4 W2 O8,14,Monoclinic,15,229.9181427462662,9.374806762425223,16.422724481876156,0.57362723,-6.215815750000003,-1.448770275000004,False,1.9051999999999991
mp-8975,Hg12 As8 O32,52,Monoclinic,14,773.6571209326677,7.551790435270299,14.878021556397455,0.58646606,-5.075032399615386,-1.240190152115388,False,1.0974
mp-4710,Hg6 B4 O12,22,Trigonal,167,303.49333289931684,7.872150144762249,13.795151495423493,-0.56912701,-5.661620642727272,-1.663841944166668,True,2.629
mp-559722,Hg24 N16 O64,104,Orthorhombic,61,1593.6507433254758,6.316671199902746,15.323564839668036,-0.28670751,-5.158125540865384,-0.7589517222115401,False,0.8522000000000001
mp-12199,Hg12 P8 O32,52,Monoclinic,14,718.9500365972689,7.314388153861302,13.825962242255171,1.12971715,-5.749197597115384,-1.799685966098902,False,1.507099999999999
mp-29096,Hg12 S8 Br8,28,Monoclinic,12,813.2794616198861,6.743661711919598,29.045695057853074,0.01686857,-2.394800703214287,-0.6119966578571461,False,1.487
mp-23418,Hg6 S4 Cl4,14,Cubic,199,373.06733779805165,6.559111578765871,26.647666985575118,-0.01639005,-2.546704589999994,-0.703444468928568,False,1.9398
mp-7580,Hg6 S4 F4,14,Cubic,199,274.75303197115613,8.50835484869105,19.625216569368295,0.146110799999999,-2.8842992178571443,-1.022379218214289,False,1.8372000000000002
mp-29956,Hg12 S8 I8,28,Orthorhombic,74,917.2280041611145,6.6601220976371955,32.75814300575409,0.72078332,-2.217476547142857,-0.466939336071431,False,1.3129
mp-31075,Hg12 Se8 Br8,28,Monoclinic,12,848.5485533484597,7.197524971955516,30.3053054767307,-0.00752041,-2.244906995714286,-0.64565954745536,False,1.3272
mp-27851,Hg6 Se4 Cl4,14,Cubic,199,391.7744078654885,7.040976025341806,27.983886276106322,-0.09122738,-27.518089149285714,-0.5136008886607121,False,1.7701
mp-1212164,Hg6 Se4 F4,14,Cubic,199,305.06984754268655,8.683848080090897,21.79070339590618,-0.20193447,-27.00679002214286,-0.8669906036607161,False,1.9752
mp-29955,Hg12 Se8 I8,28,Orthorhombic,74,963.9453179202061,6.983610180124352,34.426618497150216,0.55387029,-2.072216898928571,-0.505236284955359,False,1.297
mp-27853,Hg6 Te4 Br4,14,Cubic,199,464.063449857912,7.276589404213465,33.147389275565146,0.65544914,-2.111136350714287,-0.612633355119052,False,1.704
mp-27852,Hg6 Te4 Cl4,14,Cubic,199,426.6729365141153,7.222273620391994,30.476638322436806,0.8419448700000001,-30.661631330000002,-0.48409618964285905,False,1.9134