material_id,composition,nsites,crystal_system,space_group,volume,density,density_atomic,efermi,energy_per_atom,formation_energy_per_atom,is_gap_direct,band_gap
mp-7691,Y4 B16 Mo4,24,Orthorhombic,55,254.2569025138927,5.958573440880156,10.594037604745528,6.8693006500000005,-13.299833391666667,-0.6713338599999991,False,0.27740000000000004
mp-1045767,Y1 Cr4 Cu3 O12,20,Cubic,204,201.71446287592815,5.5939035506645745,10.085723143796407,4.27961649,-7.870556016,-2.0308343435,True,0.1077
mp-20450,Y4 Cr4 B16,24,Orthorhombic,55,233.21797558148117,5.244562185547949,9.717415649228382,6.56229408,-11.45040933125,-0.655015974583335,False,0.1589
mp-18725,Y4 Cr4 O12,20,Orthorhombic,62,219.38031951097574,5.719311184536888,10.969015975548787,3.6801365600000002,-9.3922170475,-3.191012650500001,False,2.4831
mp-1285565,Y4 Cr4 O16,24,Orthorhombic,21,315.69813106606074,4.311000592303957,13.154088794419197,2.48812767,-8.749774547083334,-2.75744404875,False,0.7015
mp-1105234,Y2 Cr2 Te2 O12,18,Trigonal,163,229.56451246934324,5.273147346474719,12.753584026074625,3.28235392,-7.974557029444444,-2.530866930185184,False,2.6946000000000003
mp-10533,Y4 Cu4 S8,16,Orthorhombic,62,330.9968870541386,4.346175291765535,20.687305440883662,4.04598175,-13.398567635,-1.590968853906249,False,1.5946999999999991
mp-28797,Y1 H1 Se1,3,Hexagonal,187,50.026080380129024,5.605506637517642,16.675360126709673,3.95659998,-14.353384759999999,-1.659960229270832,False,1.5072
mp-510598,Y4 Mn8 O20,32,Orthorhombic,55,349.15192965223,5.30340269093089,10.910997801632188,3.12425157,-8.830357905937468,-2.6337420172952273,False,1.1643
mp-1207651,Y4 Mn4 Fe4 O20,32,Orthorhombic,55,368.6083594691474,5.039813591784355,11.519011233410856,3.10219633,-8.61780832875,-2.507691700366379,True,1.1209
mp-1207709,Y4 Mn4 Ga4 O20,32,Orthorhombic,55,348.93625640706125,5.588118829613209,10.904258012720664,2.44086355,-8.1315964928125,-2.70172051286638,False,1.585
mp-989604,Y4 Mo4 N12,20,Monoclinic,15,298.7641608959705,5.043707675332528,14.938208044798525,2.66589983,-9.5667560595,-1.0928410905,False,1.9089
mp-2114,Y1 N1,2,Cubic,225,29.3532772394838,5.821847704574437,14.6766386197419,4.18413615,-16.720793145000002,-1.999617329374999,False,0.15100000000000002
mp-1194612,Y4 Nb4 Te8 O32,48,Orthorhombic,64,699.1982223931271,5.367387275231076,14.566629633190148,5.79864917,-7.726178150625,-2.519453453402777,False,2.4013
mp-2713827,Y3 Nb9 P18 O72,102,Trigonal,143,1578.3160819181023,2.958870437504938,15.473687077628455,0.40408919,-8.492748558039215,-2.961662914152662,True,1.8132000000000001
mp-11520,Y1 Ni1 Sb1,3,Cubic,216,63.47281123191167,7.046821290786001,21.157603743970558,6.58644604,-6.422141889999999,-0.9493987499999981,False,0.29450000000000004
mp-9854,Y2 P10,12,Monoclinic,11,244.7058683423263,3.308440039622174,20.39215569519386,5.55217995,-11.526529035000001,-0.6391986149801591,False,0.1371
mp-1191026,Y8 P8 S8,24,Orthorhombic,62,480.0000108962602,4.205165974296771,20.00000045401084,5.42755001,-14.235755899166668,-1.785530447762897,False,0.3264
mp-31266,Y8 P8 S32,48,Tetragonal,142,1098.7351145617147,3.000144542472958,22.890314886702388,2.97649136,-11.455282426458332,-1.212670159662697,False,2.1535
mp-1207629,Y4 Rh4 O12,20,Orthorhombic,62,228.16866006717177,6.981031070639306,11.408433003358589,5.49456667,-8.290526322,-2.547069844999999,True,9.999999999976698e-05
mp-10086,Y2 S2 F2,6,Tetragonal,129,97.18044711174419,4.783357557393636,16.196741185290698,4.28635563,-13.823306930000001,-3.331764265937501,True,1.3132000000000001
mp-1207765,Y4 Sb4 O16,24,Triclinic,2,299.7033451228763,6.087211188185334,12.487639380119846,3.61749176,-7.91533750375,-2.843681377083333,False,2.3634
mp-1207056,Y1 Sb1 Pd1,3,Cubic,216,71.12020036640537,7.40343023048882,23.706733455468456,6.17526378,-24.233244853333332,-1.239788086666664,False,0.47440000000000004
mp-769404,Y8 Se8 O24,40,Monoclinic,14,621.1035251012897,4.6169525512326075,15.527588127532244,3.21889637,-7.469001202000004,-2.499224003468754,False,1.836899999999999
mp-19133,Y2 V2 O8,12,Tetragonal,141,160.26323538371267,4.224206533628038,13.355269615309389,0.7204471,-9.081594411666666,-3.184120813333332,False,2.976
mp-546011,Y2 Zn2 As2 O2,8,Tetragonal,129,141.60195113136348,5.751668055450422,17.700243891420435,4.28902801,-6.313727393750001,-1.966997731874999,False,1.2015
mp-1215705,Y1 Zn1 Cu1 P2,5,Trigonal,156,88.50057847257435,5.250053098046244,17.70011569451487,5.73828511,-5.3043756,-0.7645778338571421,False,0.05279999999999901
mp-12509,Y2 Zn2 P2 O2,8,Trigonal,166,134.40133490239887,4.973858448756877,16.80016686279986,4.68827584,-6.557715556250001,-2.024648146160714,False,1.3049
mp-4194,Zn2 Cr4 S8,14,Cubic,227,250.21614209621526,3.950808665421528,17.87258157830109,4.26717719,-6.349802952857141,-1.047049121428568,False,0.0344
mp-4697,Zn2 Cr4 Se8,14,Cubic,227,292.8693580769563,5.502535155023875,20.919239862639735,3.26045784,-5.800587329999998,-0.8649466927678541,False,0.038899999999999005
mp-1047156,Zn2 Cu4 O8,14,Tetragonal,141,152.31785241940779,5.59259389576237,10.879846601386271,1.93726755,-5.308232844285713,-1.129661277142856,False,0.429799999999999
mp-19313,Zn2 Fe4 O8,14,Cubic,227,150.06237695876197,5.335785441202922,10.718741211340141,2.30255754,-7.172401632857143,-1.7450259114285722,True,1.6686
mp-5794,Zn2 Ga4 O8,14,Cubic,227,145.1475013418485,6.151538832288072,10.367678667274893,1.84772472,-6.049497091428571,-2.176957137857143,False,2.310499999999999
mp-5350,Zn1 Ga2 S4,7,Tetragonal,82,146.78240629193527,3.768506629263857,20.96891518456218,1.9400673,-10.00819673,-0.8744608966071431,True,2.276499999999999
mp-15776,Zn1 Ga2 Se4,7,Tetragonal,82,169.39174072865404,5.104347978029998,24.198820104093436,1.5741208,-3.958072944285713,-0.9152755777678561,True,1.400099999999999
mp-15777,Zn1 Ga2 Te4,7,Tetragonal,82,215.6045241482677,5.508738162025835,30.800646306895384,3.27504577,-3.466619885714284,-0.6253114245238071,True,1.0183
mp-24694,Zn16 H64 N32,112,Tetragonal,142,1039.7715053831603,2.490184646066881,9.283674155206787,-0.354555599999999,-4.9174453598214285,-0.41502180910714304,True,2.3718
mp-625830,Zn4 H8 O8,20,Orthorhombic,19,206.56713699355572,3.196963605886402,10.328356849677785,-1.48636231,-5.0755895165,-1.4863898169999992,False,2.9697
mp-22607,Zn1 In2 Se4,7,Tetragonal,82,191.800785952383,5.288812570099574,27.400112278911855,2.38048384,-3.827131027142857,-0.86116859752976,True,0.9929000000000001
mp-20832,Zn1 In2 Te4,7,Tetragonal,82,240.88146830313525,5.552410892873276,34.41163832901932,3.73687029,-3.3789771928571453,-0.61450366857143,True,0.8291000000000001
mp-5146,Zn2 Rh4 O8,14,Cubic,227,155.2282326923861,7.171915971174942,11.087730906599006,3.86507589,-6.412913488571426,-1.30145586428571,False,0.9323999999999991
mp-3188,Zn2 Sb4 O12,18,Tetragonal,136,203.59309349228687,6.605277558534719,11.310727416238159,4.61215386,-6.240887075,-1.884719061666666,True,0.542199999999999
mp-27656,Zn4 P6 S18,28,Monoclinic,12,663.2956911847922,2.565174183934022,23.68913182802829,1.47096634,-8.813309020357142,-0.44599288566007605,False,1.8214000000000001
mp-779594,Zn16 As16 O56,88,Orthorhombic,57,1266.5583928301792,4.11838754195602,14.392709009433855,1.9253237200000002,-5.972916994659091,-1.7460570564772722,False,2.0523
mp-721702,Zn8 As4 H4 O20,36,Orthorhombic,58,449.8480044391553,4.233879053418351,12.495777901087648,0.44801994,-5.631805613333333,-1.7068521448611111,False,1.9675
mp-1105648,Zn8 Br4 N4,16,Orthorhombic,33,298.07902587340214,5.007675862369755,18.629939117087634,0.6496106500000001,-3.725672515625,-0.6019946406250001,True,1.8521
mp-6278,Zn2 Cu1 As2 O8,13,Triclinic,2,165.69255335079256,4.732322103107533,12.745581026984043,1.7440815600000001,-5.903058587692308,-1.630548818846154,False,0.48210000000000003
mp-5909,Zn12 Ge6 O24,42,Trigonal,148,560.383815647266,4.755174506972145,13.342471801125381,-0.16572209000000002,-5.8170574464285725,-1.9692918614285722,True,2.2752
mp-1188466,Zn8 I4 N4,16,Orthorhombic,62,317.8466393321188,5.678422817594306,19.865414958257425,2.27719463,-3.507147441875,-0.41170304687500003,False,1.6378
mp-1189171,Zn8 N4 Cl4,16,Orthorhombic,33,266.3029809174084,4.496504885608294,16.643936307338024,0.86194845,-8.88729217125,-0.6116934765625001,False,1.9701
mp-1102523,Zn4 P2 N6,12,Orthorhombic,36,125.35397606271619,5.399710000712916,10.446164671893015,4.4631912,-9.614663618333333,-0.579741362371032,False,2.5136000000000003
mp-3789,Zn12 Si6 O24,42,Trigonal,148,523.0730091077116,4.24570923859573,12.454119264469325,0.69371551,-6.409501905714287,-2.44712343857143,True,2.7537000000000003
mp-16834,Zn6 As4 O16,26,Monoclinic,14,345.3441886394256,4.5589538942279795,13.282468793824062,0.20638168,-5.826267356923082,-1.772177823461543,False,2.1475
mp-680580,Zn96 As64,160,Tetragonal,133,3390.625722112223,5.42354724097907,21.191410763201393,2.74157107,-2.7675175500624993,-0.1436223710625,True,0.24800000000000003
mp-1207534,Zn12 Cd12 Te8 O48,80,Cubic,230,986.2831224513407,6.60423867387436,12.328539030641759,2.15047159,-5.242892333125001,-1.626822070791667,True,1.8056
mp-1216036,Zn6 Co8 Sb4 O24,42,Triclinic,2,469.3934615498833,6.137589149785002,11.176034798806745,3.90605093,-6.429372464047619,-1.670018547380951,False,0.347099999999999
mp-555802,Zn6 Fe4 Se12 O36,58,Monoclinic,14,841.8077194831957,4.220019541783321,14.513926197986132,0.87508036,-5.967558726379311,-1.458660788243535,False,2.470799999999999
mp-1246430,Zn6 Mo2 N8,16,Orthorhombic,31,194.02642167444037,5.959903838437623,12.126651354652523,4.71438425,-6.359343885,-0.362094895000001,False,2.1347
mp-1216023,Zn6 Ni8 Sb4 O24,42,Monoclinic,15,480.7409991401244,5.986089620007607,11.446214265241057,4.3000772,-6.160079801190477,-1.6584935111904762,False,1.1224
mp-2071,Zn24 P16,40,Tetragonal,137,731.0822298364071,4.691224769052758,18.27705574591018,3.27537034,-9.2038189335,-0.256626845690476,True,0.3144
mp-1215629,Zn3 P1 Br3,7,Monoclinic,6,183.25182245312791,4.23093681479441,26.178831779018275,0.60893986,-2.912350128571429,-0.8972724199489801,True,1.6198000000000001
mp-13199,Zn18 Te6 O36,60,Monoclinic,15,680.464328388086,6.146977535979629,11.341072139801433,2.50569964,-5.360621812333334,-1.699591537,False,1.062799999999999
mp-14921,Zn4 B6 Se1 O12,23,Cubic,217,233.29814765705282,4.2524856964834,10.143397724219687,2.5244969900000003,-7.134210053478261,-2.439133157710597,False,1.8571
mp-1046528,Zn8 Co10 Te6 O36,60,Monoclinic,15,703.7341174228247,5.7909167224397216,11.728901957047078,4.33564423,-6.189179544166667,-1.5492037505,False,0.9073000000000001
mp-557537,Zn4 P6 N12 O1,23,Cubic,217,265.60950333874797,3.948380371792607,11.548239275597737,3.9013170500000003,-6.948445963043478,-0.75109337447205,False,2.971599999999999
mp-1216191,Zn12 B6 H2 O22,42,Trigonal,161,524.7797251313776,3.809061419249039,12.494755360270895,-0.37912679,-6.223295843333333,-2.155706583035714,False,2.8322000000000003
mp-1205290,Zn216 Ru36,252,Cubic,213,3815.1001264855727,7.733105497848776,15.13928621621259,3.50220187,-2.548586704007936,-0.14389181829365,True,0.011299999999999
mp-1215558,Zn1 Ag2 Ge1 S4,8,Tetragonal,82,176.95041939490488,4.5236130059032345,22.11880242436311,2.47888809,-4.14439529625,-0.629134659791665,True,0.9342
mp-1079889,Zn1 Ag2 Sn1 S4,8,Tetragonal,121,189.25842423946415,4.633644483182918,23.65730302993302,2.90636277,-4.059099167499999,-0.620520531041664,True,0.218199999999999
mp-1193999,Zn4 Ag4 P4 O16,28,Monoclinic,14,412.0092669667477,4.324535902210397,14.714616677383846,0.8621499300000001,-6.214990425714285,-2.027847735187074,False,1.7382
mp-558807,Zn4 Ag4 P4 S16,28,Orthorhombic,33,603.0707987673549,3.662239614999156,21.538242813119815,2.62567311,-4.368739835357143,-0.644226537687074,True,2.193399999999999
mp-7262,Zn8 As16,24,Monoclinic,14,558.3442182356343,5.121352392989239,23.264342426484763,2.68374368,-3.682320307916666,-0.148990749583333,True,0.22409999999999902
mp-1392030,Zn1 Co1 F6,8,Trigonal,148,89.10150741467612,4.441682618029638,11.137688426834515,-2.69558234,-4.586744928750001,-2.102210606250001,False,0.6667999999999991
mp-1215732,Zn4 Co4 Te12 O32,52,Monoclinic,5,799.4019779624491,5.277297210318371,15.373114960816329,3.35547104,-5.959574655961538,-1.543669575192307,False,2.8426
mp-35311,Zn1 Cr1 F6,8,Trigonal,148,93.75832659702702,4.098209870140475,11.719790824628378,-2.54784858,-5.44330008625,-2.643811919999999,False,1.6674
mp-1215793,Zn2 Cr2 Fe2 O8,14,Orthorhombic,74,154.4069090109483,5.102868476993641,11.029064929353451,2.5737746,-7.60930556,-2.012926087142856,True,1.3234
mp-755896,Zn2 Cr2 O8,12,Orthorhombic,63,143.62098828731487,4.194738857166397,11.968415690609573,0.038523999999999003,-6.809650055833333,-1.6922108724999991,True,2.0907
mp-6408,Zn1 Cu2 Ge1 S4,8,Tetragonal,121,147.001823583286,4.443875003832139,18.37522794791075,4.37297574,-4.52743672375,-0.698108839374999,True,0.369399999999999
mp-1189702,Zn2 Cu4 Si2 S8,16,Monoclinic,7,285.3026892857826,4.060762574280743,17.831418080361413,4.68042996,-4.730908700625,-0.801294544374999,True,1.609999999999999
mp-1232332,Zn1 Cu2 Si1 Se4,8,Tetragonal,82,175.4085450311627,5.078185669069057,21.926068128895338,3.4454038,-4.245922689999999,-0.6375325786718741,True,0.5549000000000001
mp-1078498,Zn1 Cu2 Si1 Te4,8,Tetragonal,121,212.43916843784982,5.713784559283442,26.554896054731227,4.88942131,-3.821127924999999,-0.38904060583333205,True,0.158999999999999
mp-1079541,Zn1 Cu2 Sn1 S4,8,Tetragonal,82,158.3930417553635,4.607265294297925,19.799130219420437,4.69880199,-4.45945013125,-0.7068042468749991,True,0.09439999999999901
mp-1396958,Zn1 Fe1 F6,8,Trigonal,148,102.49254954616984,3.81132628674886,12.81156869327123,-3.19513558,-4.978457234999995,-2.326847351249995,True,0.8452000000000001
mp-4008,Zn2 Ge2 As4,8,Tetragonal,122,180.38542725334665,5.30038653730052,22.54817840666833,3.18402825,-3.965367666249999,-0.159613533749999,True,0.001199999999999
mp-2979,Zn4 Ge4 N8,16,Orthorhombic,33,182.23538225731187,6.052679765645053,11.389711391081992,4.156138,-10.619892318125,-0.359871936249999,True,1.6955
mp-4524,Zn2 Ge2 P4,8,Tetragonal,122,158.90738908504878,4.179818738428334,19.863423635631097,4.11855147,-10.47178809375,-0.275104891488094,False,1.1782
mp-24547,Zn2 H4 Se4 O16,26,Monoclinic,14,338.11742999676,3.4705989965746022,13.004516538336922,-0.7890373700000001,-5.431070875,-1.229102607091346,True,2.7465
mp-23969,Zn2 H4 Se2 O10,18,Monoclinic,15,203.2545726969196,3.698966775728045,11.291920705384422,-0.15493486,-5.382059151111111,-1.350304374427083,True,2.7214
mp-1192685,Zn2 H12 Se8 N4,26,Monoclinic,4,454.8282689321875,3.032522792790744,17.49339495893029,1.69376302,-4.551250657307692,-0.528870377067307,False,1.4965
mp-27161,Zn16 I32,48,Tetragonal,142,1937.107531351394,4.378271017384577,40.356406903154046,-0.06536673,-2.308099532291665,-0.8721765856249991,True,2.9118
mp-1095420,Zn2 Mo2 O8,12,Monoclinic,13,130.77924738719673,5.722572048722729,10.898270615599728,2.04460334,-7.236474136666668,-1.920267846666667,True,2.300799999999999
mp-1391273,Zn1 Ni1 F6,8,Trigonal,148,88.9184974719151,4.446346249647389,11.114812183989388,-2.80756452,-4.25173723875,-1.936362921249999,True,1.6071
mp-2133,Zn2 O2,4,Hexagonal,186,47.397148259900405,5.70421780686615,11.849287064975101,0.8923141,-4.894751419999999,-1.7908991124999991,True,0.7227
mp-11025,Zn8 P16,24,Tetragonal,96,470.1431866833324,3.598571490192827,19.58929944513885,3.55168789,-9.287010225416667,-0.315425149067459,False,1.4617
mp-13983,Zn1 Pd1 F6,8,Trigonal,148,96.16136791413773,4.9356027463992,12.020170989267216,-1.96934097,-4.22062722625,-1.9802847675000002,True,1.5893000000000002
mp-554820,Zn28 S28,56,Trigonal,156,1094.3999128517012,4.141139565305906,19.542855586637522,1.87931033,-9.435018265714286,-0.9622174221205351,True,2.0195
mp-753,Zn8 Sb8,16,Orthorhombic,61,391.75922728067167,6.346784757848934,24.48495170504198,4.7378534,-17.3699069225,-0.06144775499999901,False,0.028200000000000003
mp-561492,Zn1 Sb2 Xe6 F24,33,Trigonal,148,713.4663665580205,3.613672494429392,21.62019292600062,-4.46919704,-3.334236260909091,-1.647349954545454,False,2.558099999999999
mp-1196112,Zn4 Sb12 Xe4 F92,112,Monoclinic,14,1887.6802013498166,3.5149760028676083,16.854287512051933,-3.43092781,-4.233966649910714,-2.173197859732143,True,1.6604
mp-1190,Zn1 Se1,2,Cubic,216,45.44784771695639,5.274845268778988,22.723923858478194,1.321407,-3.329388575000001,-0.9515610311718761,True,1.1663000000000001
mp-1102515,Zn4 Se8,12,Cubic,205,258.97780493022333,5.727850373967437,21.581483744185277,3.5528101100000002,-3.394683860833333,-0.644161672395833,False,0.7291999999999991
mp-778924,Zn4 Se4 O16,24,Orthorhombic,62,299.1747288859557,4.626070935376495,12.465613703581488,0.34615205,-5.447703002499999,-1.356453151223957,True,2.3858
mp-1189914,Zn2 Si2 Ag4 S8,16,Monoclinic,7,332.8974915414343,4.364531119583839,20.806093221339644,2.65690428,-12.168504556875,-0.6014898295312491,False,1.6859000000000002
mp-3595,Zn2 Si2 As4,8,Tetragonal,122,171.94529125925024,4.700003754302898,21.49316140740628,3.55741743,-4.19762225375,-0.1912955775,True,0.8866
mp-4763,Zn2 Si2 P4,8,Tetragonal,122,151.00927439980956,3.418565574455873,18.876159299976194,4.44458853,-9.3137867975,-0.39165684148809604,True,1.3641
mp-2713863,Zn6 Sn6 S18 O72,102,Trigonal,161,1490.0320304952716,3.158122282351788,14.60815716171835,0.29594654,-6.373702606078432,-1.840765769166667,True,2.057
mp-1029469,Zn4 Sn4 N8,16,Orthorhombic,33,216.17008236895262,6.518092302715617,13.510630148059539,5.05206165,-13.0897201425,-0.11114821062500001,True,0.12070000000000002
mp-4175,Zn2 Sn2 P4,8,Tetragonal,122,180.59078792277623,4.525181829974542,22.57384849034703,4.41672018,-13.174004035,-0.258769282738095,True,0.704299999999999
mp-2176,Zn3 Te3,6,Cubic,216,171.17748428055455,5.616959252306423,28.52958071342576,2.85423966,-2.885687785,-0.6841630333333321,True,1.073299999999999
mp-1100809,Zr3 Cu6 Cl18,27,Triclinic,1,652.5807048320004,3.290392088211339,24.169655734518532,1.24797202,-4.679069405925925,-1.5860282092592581,False,1.630399999999999
mp-610738,Zr2 In4 Br12,18,Tetragonal,128,591.2620748673273,4.49513981316358,32.84789304818485,0.50133936,-4.10026781611111,-1.4460758909259241,False,2.41
mp-8203,Zr2 P4 S12,18,Tetragonal,84,439.92498525209083,2.6087102563043443,24.44027695844949,2.1279227,-5.905767003333333,-0.9936775493650771,False,1.5351
mp-619928,Zr4 Se16 Cl24,44,Tetragonal,138,1296.5586939018635,3.17508872869701,29.467243043224173,-0.50040893,-11.648978170227274,-1.02073578715909,False,1.3208
mp-570544,Zr2 Se4 Cl24,30,Orthorhombic,43,855.4071650269402,2.619025159817896,28.513572167564675,-0.18973938,-9.258833173333333,-0.9120212308749991,False,2.8159
mp-14651,Zr2 Ag1 Pd1 F11,15,Monoclinic,12,243.64001962851128,4.128301494355695,16.242667975234085,-0.63730415,-6.2058725,-3.127832708444444,False,0.165
mp-559369,Zr4 H24 N20 O70,118,Trigonal,165,1445.23607993239,2.055720125768046,12.247763389257543,-0.835011,-6.557595332542373,-1.22880192322034,False,1.4474
mp-675993,Zr16 N16 O8,40,Triclinic,1,523.1695187502706,5.75028921947559,13.079237968756766,3.59790688,-10.081732759249997,-2.337749208249997,False,1.6503
mp-11583,Zr4 S2 N4,10,Hexagonal,194,145.98198411008295,5.5174556550508225,14.598198411008294,5.21253457,-9.47055019,-1.8884869265000002,False,0.5637999999999991
mp-1079726,Zr4 Se2 N4,10,Hexagonal,194,153.3093631605836,6.269617608504008,15.33093631605836,5.10653017,-17.539479227,-1.925750150312501,False,0.33680000000000004
mp-1202377,Zr4 Te8 Br4 O22,38,Triclinic,2,714.4080419698067,4.781896099111495,18.80021163078439,1.86733185,-6.762734548684211,-2.164308814035088,False,2.8298
mp-28672,Zr8 Te4 Br48,60,Monoclinic,14,2430.2923795842075,3.4679800622392,40.50487299307012,-1.36153071,-4.151174094,-1.492369722444444,False,2.4195
mp-1101160,Zr6 N4 O6,16,Monoclinic,8,229.0685822078297,5.069776685678375,14.316786387989357,2.2886298,-10.050144854375,-2.904702305,False,2.538599999999999
mp-277,Zr12 N16,28,Orthorhombic,62,348.3795536060767,6.285991608223824,12.442126914502738,4.98353482,-16.818722965357143,-1.852383193928572,False,0.970499999999999