composition,band_gap
Hg0.7Cd0.3Te1,0.35
Lu1P1,1.3
Pt1Sb2,0.08
K4Sn3Ce3S14,2.46
Pb6B2Cr1O12,1.8
Pr1Te2,1.02
Hg1Se1,0.07
Rb7Th2P6Se21,2.07
Tl1S1,1.37
Bi1Se1Br1,1.5
K2Au1P1S4,2.63
Pb0.97Sn0.03Te1,0.3
Pt1As2,0.55
Gd1.05Sc0.95Se3,1.2
Pb0.97Se1Sn0.03,0.21
Tl2Au1P1S4,2.2
Cs1.13Cd1.13Bi2.87Se6,1.0
Pt1Sb2,0.11
Hg0.1Zn0.9Te1,1.83
Tl1Bi1Te3,0.5
Pb0.92Sn0.08Se1,0.06
W1O3,2.9
Eu1Yb2Se4,1.3
Bi2Te2.4Se0.6,0.25
Tm1As1,1.18
Sm1As1,1.03
U1P2S7,1.41
Ta1O1N1,2.8
K1Bi1Se2,0.7
Bi0.4Te3Sb1.6,0.21
Tl2Te3,0.69
Al0.74Gd3Si0.7S7,2.34
Cs1Tb1Zn1Te3,2.12
La5In3S9O3,2.6
Ta1Zr1N3,1.72
Ba2Ga1Er1Te5,1.15
K2Hg3Sn2S8,2.5
Hf1S3,2.85
Ga0.9Sb0.9Hg0.1Te0.1,0.65
Pt1S1,0.8
Os1S2,2.0
Sm2S3,2.96
Yb1B66,1.27
Pb0.9Sn0.1Se1,0.08
Tl1Ti1P1S5,1.3
Cs1Yb1Mn1Se3,1.6
Pb0.95Te0.95Ge0.05S0.05,0.4
Pb0.94Sn0.06Te1,0.28
Bi2Te0.45Se2.55,0.2
Tb4Ga1Sb1S9,2.44
Dy2Te3,0.69
Ti1Tl1S2,1.0
Bi2S3,1.25
Pb0.99Se1Sn0.01,0.31
Tl2In1Ga1Se4,2.05
Na1La1S3,2.61
Tl2.35Sb8.65Se14,0.6
Hg3P1S4,2.03
Eu1Sb4S7,0.98
Pb1Se1,0.17
Na0.75Eu1.625Ge1Se4,2.0
Pb1I2,2.36
Zn1Hg3Se2Cl4,2.23
Hg2I2,2.37
Hg0.5Cd0.5Se1,0.8
Tl1In1Se2,1.44
Ta1Ga1Se2,2.17
Ir0.67Se2,0.45
Bi2Se3,0.4
La2Ge2Se7,1.08
Cs1Lu1Co1S3,1.5
Bi1S1Br1,1.92
Pb0.95Mn0.05Te1,0.37
Tl1Br1,2.64
La4Cd4In2S13,2.27
Hg1Se1,0.6
Ce2Sn3Se9,0.3
Hg0.7Cd0.3Te1,0.27
Na2Hg3Ge2S8,2.68
Cs3Bi1,0.55
Cs4Cu3Bi9S17,0.9
La1.86Tb1.14Ga1.67S7,2.67
Sr1Pb1O3,1.78
Pb1Se0.99S0.01,0.26
Bi2Te2Se1,0.3
Tl2Se1,0.37
Pb1O2,1.45
Nd2Se3,1.75
K1Cu1Th1S3,2.95
Pr2Te3,1.3
Eu3Sb4S9,1.2
Hg1In2Se4,0.6
Tl1Ta1S3,0.78
Eu1Ho2Se4,1.8
Hg1Se1,0.1
Zn0.5Hg0.5Se1,0.75
Ta1Ga1S2,2.46
Pb0.01Sn0.99Te1,0.26
Pb0.8Sn0.2Se1,0.08
Sm1Te1,0.32
Ce2Ge1Se5,1.7
Rb1Bi1Se2,0.9
La2Ge1Se5,1.24
Tl1Sc1Te2,0.85
Pb1Se1,0.27
Dy1N1,2.6
Cu5Ta11O30,2.58
Ir1P2,1.0
Ba3Bi2Te1O9,2.3
Pb1Se0.5S0.5,0.33
Pb4Ga5Ge1S12,2.35
Tl1Br1,2.63
Tl1P1Te1,0.3
Pb0.94Se0.94Ge0.06Te0.06,0.28
Bi1I3,1.8
Pb7Bi4Se13,0.29
Sr2Bi5.42La2.58S14,1.0
Yb1Sn1Te2,0.75
Ba1Pr1O3,2.0
Ba2Ga1Sm1Te5,1.04
Na2Eu1Ge1Se4,2.0
K9Bi13S24,1.4
La3Lu1Se6,1.26
Nd1In3S6,1.15
Bi2Y1V1O8,2.09
Cs1Yb1Co1Se3,0.95
K2Hg3Sn2S8,2.4
Pb1Se1,0.18
Ho2Hf1S5,1.0
Ba2Nd1Ga1S5,2.12
Eu1Li1H3,1.5
Pb4Ga5Ge1Se12,1.91
Pb0.99Te0.99Ge0.01S0.01,0.32
Tl2Te3,0.2
Pt1Sb2,0.1
K6Nb2.97Ta1.03S25,2.01
U1P2S9,1.41
Ta1Ga1Se2,2.23
Hg3P1S3,1.98
Tb2Ge1S5,2.1
Ce2Te3,1.4
Cs2Bi8.81La1.19S16,1.0
Cs2Ta2P2Se12,2.29
Tl3Ta1S4,2.18
Tl2In1Ga1Te4,0.88
Ga0.95Sb0.95Hg0.05Te0.05,0.69
Bi1Cu1O1S1,1.07
Pt1Sb2,0.05
Nd2Yb1Cu1S5,1.35
Ba2Hg1S5,2.4
Pb0.97Sn0.03Te1,0.21
Ba3Th1Se7,1.96
Zn1Y1Bi1O4,1.58
Hg3Te2U1Cl6,2.6
Er1Se2,1.07
Cu1Tl1Se2,1.07
Sm1Cu1O1S1,2.9
Bi1I3,2.03
Bi0.2Te3Sb1.8,0.28
Bi2Te0.6Se2.4,0.28
Bi2Te0.03Se2.97,0.27
Pb0.94Se1Sn0.06,0.22
Hg0.01Cd0.99Se1,0.29
Os1P4,0.6
Pb0.94Sn0.06Se1,0.14
Eu2Se3,1.02
Cs3Bi2I9,1.9
Pb0.995Te1Ga0.005,0.37
Eu1O1,1.12
Cs1Gd1Zn1Te3,2.13
Tl1Cr5S2Se6,0.75
Ba2In1Gd1Te5,1.36
Rb3Ta2As1S11,2.21
Hg1In2Te4,1.25
Tl1Br1,2.65
Ca1Ta1O2N1,2.4
Pb0.999Sn0.001Te1,0.18
K3Bi2I9,2.1
Er1Te1,0.9
Sm2Te3,0.7
K3Ta2As1Se11,1.45
Tl1S2,1.8
Bi2Te2.4Se0.6,0.27
La2Ni1V1O6,0.45
K2Pb1Ge2S6,2.85
Hg0.01Zn0.99Te1,2.3
Pb1Bi1O2Cl1,2.45
Eu1Bi2Te4,0.44
La4In1Sb1S9,2.07
Yb1In3S6,1.31
Sm1.82Lu2.18Se6,1.51
La1Mg2Pd1H7,1.0
Cs1Er1Zn1Se3,2.56
Pb2Nb2Se4O15,2.79
Tl1Se1,0.56
Lu1In3S6,1.27
Hg8As4Bi3Cl13,2.43
Pb1I2,2.53
Na2Hg3Sn2S8,2.45
Ag1Tl1Te2,0.1
Pb3Bi1V3O12,2.5
Pb0.99Sn0.01Te1,0.23
Na2Hg3S2.51Se1.49,2.03
Ba1Ir2Ge4S6,1.54
Hg1Se1,0.32
Tl4Ga1In3S8,2.63
Hg0.2Cd0.8Se1,0.45
Pb0.85Sn0.15Se1,0.14
Hg0.06Zn0.94Te1,2.12
K1Sm2Cu1S4,2.17
Rb9Bi13S24,1.3
La20Mo12O63Cl4,2.4
Bi3Te1B1O9,2.6
Li2Hg1Ge1S4,2.46
Pb0.999Sn0.001Te1,0.32
Tl1In1Se2,1.21
K2Au1I5O15,2.65
Nb1Ir1Sn1,0.28
Pb0.85Sn0.15Te1,0.13
Cs1La1Hg1Se3,2.51
La6Sb4S3O12,2.6
Hg0.14Zn0.86Te1,1.73
Tl1P1S2,1.7
Pb0.65Se0.65Sn0.35Te0.35,0.09
Li1Bi1S2,0.18
Hg7.5As4Cl6,1.73
Bi1S1Br1,1.88
Bi2Se3,0.35
Pb0.9Mn0.1Te1,0.49
Tl2Se1As2Te3,0.67
Li1Sm3Si1S7,2.83
Pb0.9Se0.9Bi0.2Te0.3,0.25
Pt0.97S2,0.95
Th1O1Te1,1.45
Pb1Ga2S4,2.38
Pb1Te1,0.22
Pb0.99Se0.99Ge0.01Te0.01,0.23
Pb0.01Sn0.99Te1,0.3
Li2Hg1Ge1,0.93
Cs1Au1,2.3
Pt1S1,0.38
Ce1Bi1W2O9,2.34
Bi9O7.5S6,1.27
K2Ta15O32,0.33
Hg0.14Zn0.86Te1,1.66
Eu1Yb2S4,1.6
Pb0.9Ge0.1Te1,0.35
Eu1Bi2Se4,1.02
Tl1Sb1S2,1.92
Tl1Se1,0.7
Bi38Zn1O58,2.88
Na2Hg3Si2S8,2.86
Sr1Pr2S4,2.7
Pt1As2,0.5
Zn0.85Hg0.15Se1,1.8
Hg1O1,2.21
Tb2Mo3O12,1.6
Ta1Ga1Se2,1.65
Hf1Se2,2.2
Rb3Bi2I9,2.1
Hg2Cl2,2.84
Nd2Te3,1.12
Ba2Ga1Gd1Te5,1.12
Mn3Ta2O8,1.89
Gd2Se3,2.2
Eu3S4,1.7
Ba1Hg1S2,1.93
Bi1Sb0.15,0.02
Cd1Tl1S2,1.5
Tl1In1S2,2.3
Na2Pt1I6O18,2.4
K6Nb1.07Ta2.93S22,1.88
Os1Sb1Te1,0.05
Bi1.4Te3Sb0.6,0.17
Pb1Te0.05Se0.95,0.26
Cs1Bi1S2,1.4
Tl3V1S4,1.97
Ce2S3,1.12
Ce2Ge2Se7,1.1
Na1Bi1S2,0.38
Hg0.25Zn0.75Te1,1.37
Eu7Ga6Sb8,0.6
Pb1S1,0.41
Ga0.99Sb0.99Hg0.01Te0.01,0.72
Y1Pt1Sb1,0.16
Os1Sb1S1,1.2
Ag1Bi1Se2,0.34
Cs2Ag1Bi1Cl6,2.77
Ba2Ga1Bi1Te5,1.43
Ba1U1Se3,1.0
Sm1In3S6,1.18
Cu0.5Pb1.75Ge1S4,1.48
Pb0.94Se1Sn0.06,0.19
Hg0.9Cd0.1Se1,1.3
Ho1N1,1.9
Pb0.92Se0.92Sn0.08Te0.08,0.22
Cs2Hg4.65Cd1.35S7,1.84
Bi2Te1.5Se1.5,0.29
Pb0.85Se0.85Ge0.15S0.15,0.34
Os1P2,1.13
Cu3Yb1S3,1.56
Ce8Sb2S15,1.99
Rb1Bi1Se2,0.92
Bi1Cu1O1Se1,0.82
Ce1.3Lu0.7S3,1.25
Sm2Yb1Cu1S5,1.28
Pb0.85Sn0.15Se1,0.13
K2Hg3Ge2S8,2.64
La2Hf1S5,0.7
Pb1Se1,0.22
Pt1S1,0.64
Ta1Ga1S2,2.45
Cs1Bi1S2,1.39
K1Bi1Se2,0.67
Hg1Te1,0.18
Cs4Th2P6S18,2.8
Pb1Se1,0.29
Rb1Bi3Se5,0.48
Tb1In3S6,1.2
Pb1Co1O3,0.28
Eu1N1,1.25
Bi2Te0.3Se2.7,0.24
La2Se3,1.97
Tl3V1S4,1.7
Pb0.995Te1In0.005,0.43
Tl2S1,1.0
Pb0.85Sn0.15Te1,0.15
Pb0.77Sn0.23Te1,0.04
Bi24B1O39,2.91
Pb1S1,0.31
K2.15Pb1.7Sb8.15Se15,0.6
Hg6.5As4Cd1Cl6,2.05
Pb1S1,0.38
Tl1Cr5S5Se3,0.89
Na0.5Pb1.75Ge1S4,2.08
Hg0.77Cd0.23Te1,0.21
Li2Hg1Si1S4,2.68
Eu1Tb2Se4,2.0
K1Bi1Cu2S3,1.29
Pb1Se1,0.28
In2Bi3Se7I1,1.38
Pb0.99Te1In0.01,0.53
Ir1Se2,0.9
La1Ga1S3,2.5
Cs1Bi2,0.55
Pb1Sn1S3,0.9
Hg1In2Te4,1.17
Zn0.99Hg0.01Se1,2.6
Tl4Cd1I6,2.8
Pb1Te1,0.33
Cs1Tm9Cd4Se18,2.16
Bi2Te0.4Se2.6,0.7
Eu1Te1,2.06
Pb0.99Ge0.01Se1,0.27
Tl1In1Te2,0.62
Pb0.9Se0.9Ge0.1S0.1,0.32
La1Cu1O1Se1,2.83
Ir1S1Se1,1.2
Os1As2,0.92
Pb0.85Sn0.15Te1,0.23
Hg4As2U1Cl6,1.9
Sm3S3B1O3,2.5
Gd1Sc1S3,2.1
Eu1In2Se4,1.31
Cs2Ag1Bi1Br6,2.19
Pb0.9Sn0.1Se1,0.17
Pb1S1,0.39
Os1Sb2,0.21
Ce1Ta1N2O1,1.9
Ce4In1Sb1Se9,1.69
Hg0.2Zn0.8Te1,1.4
Bi2S3,1.4
Pr2Ge1Se5,1.8
Cu3Tb1Se3,0.16
Sm2Se3,2.3
Cs4Cu3Bi9S17,0.6
Bi2V2Se4O16,2.2
Os1Sb2,0.2
Bi1Br3,2.66
Re1Se2,1.15
Eu1S1,1.65
Pb0.96Te1In0.04,0.37
Tl1In1S2,2.2
Os1P1S1,1.4
Cu3Sm1S3,1.82
Ba2Bi1In1S5,1.55
Bi1Fe1Se3O9,2.54
In1Bi2Se4Br1,1.21
Pb0.999Te1In0.001,0.3
Hg0.9Cd0.1Se1,1.32
Pb0.8Ge0.2Se1,0.35
Tl1Sb1S2,1.42
Cs2Hg3I8,2.56
Ba2In1Sm1Se5,2.22
Pb1Te1,0.21
Cs1Hg1In1S3,2.3
Hg1Ga2Se4,1.95
K2Hg3S1.03Se2.97,2.11
Pb1I2,2.41
Cs2Hg5.75Cd0.25S7,1.66
La1Cu1O1Te1,2.31
K2Ce1P2O8,2.46
Li2Hg1Sn1S4,2.32
Pb0.95Ge0.05Te1,0.34
Cs1Bi1Se2,1.07
Bi2Cu0.96Se3I1,0.68
Tl1Se1,0.96
Sn2W1O5,2.6
Pb0.95Se1Sn0.05,0.19
Rb1Bi1S2,1.2
Cs1Yb1Mn1Se3,1.59
Ag2Hg1I4,2.47
Gd1.87Lu2.13Se6,1.56
Hg1P1S3,2.6
Sr1Ir4In2Ge4,0.25
Cu3Gd1Te3,0.52
Tl1Ga1Se2,1.65
Cs1Er1Zn1Se3,2.63
Pb0.94Sn0.06Se1,0.22
Cu3Ho1Se3,0.16
Sm2Sc3,2.3
W1Se2,1.35
Ba3B1.5S6Bi0.5,2.43
Hg2Br2,2.6
Bi1O1I1,1.89
Pr1O1,0.55
Hg6As4Cd1Br6,1.89
Pb0.98Se0.98Bi0.04Te0.06,0.28
Cs3Bi1,0.7
La2S3,2.77
Ce3Mo1O7,2.0
Pb1S1,0.44
Tl2Cu2Sn1S4,1.4
Li1Bi1S2,0.19
Nd2S3,2.65
La3In1Ge0.5S7,2.61
Pb0.8Se0.8Bi0.4Te0.6,0.22
Pb6Sb6Se17,0.8
Ba2Ga1Bi1Se5,2.21
Tl1Cu1Cl3,2.98
Er2Mo3O12,0.96
Cu1Pb1Bi1Se3,0.07
Eu3As2,0.6
Tl1Se1,0.8
Cu3Ho1Te3,0.26
Pb0.999Te1Tl0.001,0.3
Ba2Ga1Nd1Se5,2.18
Na1Bi1Se2,0.35
Bi2Te2.1Se0.9,0.29
Ta0.67Zr1.33O1.38N1.97,2.31
Hg0.08Zn0.92Te1,1.9
Tl1Hg1In1S3,1.74
Eu1In2Te4,1.22
K1Au5P1S8,2.14
Tl4Ta2S11,1.26
Er3Sm1Se6,2.0
Pb0.6Ge0.4Te1,0.51
Pb1S1,0.28
Bi2O3,2.86
Pb0.85Se1Sn0.15,0.22
Hg0.4Cd0.6Se1,0.7
Hg4As2Cd1I4,1.45
Cs4Bi1As3Se7,1.02
Pb1O2,1.4
Pb0.8Sn0.2Se1,0.06
La2Se3,1.65
Bi1.6Te3Sb0.4,0.16
Gd1N1,1.54
Lu2Cr1S4,1.75
La8Sb2S15,2.3
U1Y4O3S5,1.95
Ta0.67Zr1.33O0.42N2.61,1.93
Tl2Ge1Te3,0.37
Tl1Sb1Te3,0.38
Pb0.87Sn0.13Se1,0.02
Cd3Bi2,0.2
Rb1Bi3Se4Te1,0.8
Dy1As1,1.0
Pb1S1,0.42
La3Sb0.33Si1S7,1.92
Pb0.99Sn0.01Se1,0.16
Pb1Se1,0.15
Cs1Y1Hg1Se3,2.54
Pr2Se3,1.8
Pb0.94Sn0.06Se1,0.17
Tl2Bi1P2S7,1.8
Pb0.999Se1Sn0.001,0.32
Tl1Se1,0.57
Pb0.99Ge0.01Te1,0.32
La4Fe1Sb2S10,1.0
Pb1S1,0.37
Zn0.8Hg0.2Se1,1.4
Hg1O1,2.48
Tl1In1S2,2.25
Sc1Ta2O5N1,2.67
Tl1Pr1Se2,1.18
Pb1I2,2.55
Tl2Te1S3,1.6
Ca1Pr2S4,2.9
Hg0.1Cd0.9Se1,0.35
Ba2Bi1Ga1S5,2.38
Pr1.29Lu0.71S3,1.38
Tl1In1Se2,1.1
Ta1Ga1Se2,2.12
Sr8.007Ge2.043Bi7.949Se24,0.74
Tl1Cr5S8,1.01
Cu3Tb1Te3,0.46
La2Ga2Ge1S8,2.78
Cs1Lu1Co1S3,1.18
La2Mo1O5,0.49
Ba1Ta1O2N1,1.78
Ho1In3S6,1.23
Pb1Te1,0.36
Hg0.99Cd0.01Se1,1.72
Pb1Te0.99Se0.01,0.3
Ga1Bi1,0.1
Pr1Te2,1.29
Pb1Se0.95S0.05,0.26
Pr1In3S6,1.14
Eu3Sb4Se9,1.08
Ca4Bi6O13,2.76
H6Pt1I6O20,2.12
Hg0.77Cd0.23Te1,0.12
Pb1Te1,0.3
Cu2W1Se4,1.65
Sm3Te4,0.51
Yb1Sb4Te7,0.22
Dy1N1,2.1
K8Ce2I18O53,2.34
Pb1Bi1O2Br1,2.3
Tl2Ge1Te3,0.36
W1Se2,1.57
Pr1Lu1Se3,1.56
Gd1Te1,1.3
Pb0.59Ge0.41Te1,0.49
Ba8Hg4S5Se7,1.98
Pb0.9Se1Sn0.1,0.24
Tl1P1Se2,0.5
W1O3,2.7
Bi1.98Te3Sb0.02,0.14
Tl1P1Se2,0.6
Eu3Se4,0.58
Hg2Cu3Te6O16,2.56
Os1P4,0.4
Pb2Sb1S2I3,2.0
Cs3Bi2Br9,2.5
La3Mg0.5Sn1S14,1.71
Tl1Bi1Te2,0.12
Ba2In1Gd1Se5,2.24
Cu3Ta7O19,2.47
Pb1Te1,0.19
Pb1Se1,0.14
K1.83Cd1.83Bi2.17S6,1.37
Ce4Ge3S12,2.3
Tl2Hg3S4,2.05
Cu1Pb1Bi1S3,0.12
K1Bi3S5,1.21
Hg0.65Cd0.35Te1,0.28
Tl1Ga1Te2,1.8
Cu3Gd1S3,1.62
Cu3Tm1Te3,0.14
Na1Bi1S2,0.42
La2Yb1Cu1S5,1.45
Hg0.06Zn0.94Te1,2.03
Yb1Ga2Se4,1.8
Pb0.8Sn0.2Te1,0.11
Bi2Te1.2Se1.8,0.28
Tl1In1S2,2.52
Rb2Hg3Ge2S8,2.8
Ho2Ge1S5,2.5
La2Se3,1.7
Yb1S1,0.98
Tl2Au2Sn2Se6,1.2
Cs2Bi2Cd2S5,1.7
K2Bi8Se13,0.47
Pb0.99Sn0.01Se1,0.22
Pb0.999Se0.999Bi0.002Te0.003,0.79
K1Tb1Se4,1.65
Ho2Mo3O12,1.07
K2Sm1P2S7,2.59
Eu1Sb2Se4,0.95
Pb0.93Te1In0.07,0.32
Pb0.999Sn0.001Te1,0.21
Tl1N1,1.4
Pb1Se0.9S0.1,0.27
Pb1Te1,0.29
Pt1P1As1,0.4
Tl2Ce1P2S7,2.4
Li1Pb1Sb3S6,1.6
Hg0.7Cd0.3Se1,1.1
Pb1Se1,0.26
Pb1S1,0.6
Pb1I2,2.54
Pb1Sb2Se4,1.8
K1Au1I4O12,2.75
K1Bi1Si1S4,2.25
K3Ta2As1S11,2.21
Dy1In3S6,1.22
Eu1Ga2S4,2.25
Pb1Mn1In2S5,1.45
Mg2Pb1,0.15
Th1O1Se1,1.65
Hg1Se1,0.24
Tl3Cu1Nb2Se12,0.8
Zn0.4Hg0.6Se1,0.42
Bi2O3,2.91
Bi14.7In11.3S38,1.45
Bi2S3,1.45
Eu1Te1,1.96
Pb0.93Te1Tl0.07,0.54
Eu3In2P4,0.45
Gd1As1,0.63
Ba2In1Er1Se5,2.29
Bi1S1Cl1,1.89
Hg0.63Cd0.37Te1,0.35
Gd2S3,2.55
Ag1Pb1Bi1S3,1.2
Hg4As2Zr1Cl6,2.48
Rb1Yb1Zn1Se3,2.07
Hg1In2Te4,0.86
Pt1Sb2,0.06
Pt1As2,0.8
K1.46Sn3.09Bi7.45Se15,0.39
K1Eu1As1S4,1.89
Pb0.61Ge0.39Te1,0.56
Tl1Se1,0.65
Cu3Yb1Se3,0.2
Pb0.96Te1Tl0.04,0.57
Pr2Se3,1.9
Pb1Ga2Se4,1.83
Mg2Pb1,0.04
Tl1As1S2,2.22
Pb1O2,1.5
Pb0.99Te1Ga0.01,0.42
Rb1Bi1S2,1.36
Rb1.45Pb3.1Sb7.45Se15,0.45
Sm1Te1,0.62
Ba2In1Dy1Se5,2.27
Pb0.9Sn0.1Te1,0.16
Bi2Te3,0.25
Pb1O2,1.7
K1Bi1S2,0.9
La2O2Fe1Se2,0.7
Yb1Sb2S4,1.12
Hg1Te1,0.15
Tl1Sb1Se2,0.82
Th2Ge1Se2,1.98
Ba1.88Ta15O32,0.13
Hg0.8Zn0.2Te1,0.08
Ba2In1Nd1Te5,1.37
Ba2Ga1Sm1Se5,2.27
In1Bi2S4Br1,1.5
Hg2I2Te2,1.85
Ba3Ta2Se9,1.6
Ce10O1Se14,1.93
Eu1Sb4Te7,0.54
W1Se2,1.49
Tl1Se1,0.79
Pt1S2,0.75
Ce1F1Mo1O4,2.52
Nd4Ge3S12,2.62
Gd1B66,1.27
Pb0.92Sn0.08Te1,0.13
Cs2Hg1I2Cl2,2.15
Pb1Te1,0.25
La4In1Sb1Se9,1.76
Pb0.999Sn0.001Te1,0.23
Yb1S1,1.33
Tl1Cu3Lu2Se5,2.12
Gd3.04Sc0.96S6,1.5
Pb0.999Te1Ga0.001,0.3
La2Mn1Ni1O6,1.2
Tl1P1S2,1.6
Tl1In1Se2,1.14
Pb0.83Sn0.17Se1,0.04
Ba2In1Er1Te5,1.35
Er2Se3,1.66
Pt1Se2,0.1
Pt1P2,0.8
Bi3In4S10,1.42
Ca1Sm2S4,2.05
Bi1S1I1,1.56
Ce2Yb1Cu1S5,1.37
Pb0.995Te1Tl0.005,0.48
Th2Se5,0.37
Hg0.1Zn0.9Te1,1.74
Pb1Ge1S3,2.4
Mn2.04Gd1.47In0.49S5,1.75
La3Cu1Ga1Se7,1.36
Hf1S3,2.8
Pb0.95Sn0.05Se1,0.12
Bi1Zn2V1O6,2.4
Hg0.3Cd0.7Se1,0.55
Ta1Ga1Se2,2.03
K1Fe2Bi1O5,1.76
Tl1In1Te2,0.68
Hf1S2,2.9
Sm1Te1,0.35
Sm1B66,0.8
Pr2Te3,1.16
Rb3Bi2Br9,2.62
Pr10O1Se14,1.89
Yb1Sb2Te4,0.34
Tl2Te1I6,1.47
Zn0.9Hg0.1Se1,1.75
Nd2Se3,1.7
Nd4In1Sb1Se9,1.57
Tl1In1Se2,1.2
Yb1Te1,1.8
Tl1In1Se2,1.4
Dy1Te1.7,0.35
Sm4In1Sb1S9,2.13
Cs4Pb4Ge5S16,1.95
Hg1Ga2S4,2.79
Cs1Sm1Cd1Se3,2.47
Er1N1,2.4
Hg0.25Zn0.75Te1,1.25
Tl1Cr5Se8,0.67
Tl1In1Ge1S4,2.3
La3Sb0.33Si1Se7,1.75
K2Cu2Th1S4,2.17
Hg0.8Cd0.2Se1,1.1
Tl1Cr5S1Se7,0.71
Sn2Bi1S2I3,0.9
Bi1Se1Br1,1.96
Na8Eu2Ge4S12,2.15
Ca1Gd2S4,2.55
Ho2S3,0.5
K3Cu3Th2S7,2.49
Ir1Se2,1.0
Tl1Se1,0.74
Ir2Sn3Se3,0.43
Hg0.8Cd0.2Se1,1.3
Ba1Hg1Se2,1.56
La3Ga1Ge0.5S7,2.54
Cu3Gd1Se3,0.14
Ce2O2Fe1Se2,0.64
Dy4Ga1Sb1S9,2.58
Tb2Mo3O12,1.41
Na0.5Pb1.75Ge1Se4,1.6
Sm1Sn1Te2,0.52
Ce1In3S6,1.11
Ag1Tl1Se2,0.72
K1Bi1Se2,0.61
Re1Si2,0.12
Ho1N1,1.88
Sm1P1,1.09
Re1O3,2.3
Pb2Bi1S2I3,1.6
Ce2Yb1Cu1Se5,1.05
La3Cu1Ge1Se7,2.0
Hg1S1,2.1
Cs5Bi1P4Se12,1.85
Eu4Te7,0.31
Gd1In3S6,1.13
Pb0.85Sn0.15Te1,0.1
Bi1I3,1.81
Pb1I2,2.56
Pb2O3,1.67
Sm2Zr1Se5,1.41
Cs2Cu3Dy1Te4,1.38
Rb1.54Cd1.54Bi2.46S6,1.33
Tl2Hg3Se4,1.57
La2Yb1Cu1Se5,1.15
Cs2Hg3S4,2.8
Bi1Se1I1,1.32
Gd2Mn4S7,1.44
Ba3Ta5O14N1,2.8
Cs1Yb1Zn1Se3,1.97
Hg4As2Hf1Cl6,2.47
Bi1S1Cl1,1.93
K1U1O3Cl1,2.37
Cs1Tb9Cd4Se18,1.95
Pb0.7Ge0.3Se1,0.4
Bi1Te1I1,0.46
Ce1N1,0.7
La2Mo1O5,1.0
Pr4Te7,0.46
Pr2.48Tb0.52Ga1.67S7,2.61
Pb2Bi5.9La2.1S14,1.0
Tl1As1Se2,1.4
Cs1Yb1Zn1Se3,2.1
Pb1Sb1O2I1,2.48
Bi2O3,2.8
Pb0.83Sn0.17Te1,0.15
Tl3As1Se3,1.3
Ce1Mn0.5O1Se1,2.01
Th1O1S1,2.22
Tl4Nb2S11,1.8
Sm1Te1,0.22
Hg4As2.5In1Br3.5,1.71
Bi25Fe1O39,2.8
Hg0.2Zn0.8Te1,1.46
Bi2Te0.1Se2.9,0.78
Pb1Sb1B1S4,1.8
Cu1Bi1P2Se6,1.2
Ag1Bi1P2S6,1.7
U1O2,2.18
K1.25Pb3.5Bi7.25Se15,0.53
Gd4Ga1Sb1S9,2.41
Nd1Cu1O1Te1,2.26
Cs1Bi1S2,1.46
Os1Te2,0.3
Rb2Hg3Sn2S8,2.48
Sm2Mn3Sb4S12,1.5
Cu3Er1Te3,0.24
Pb0.9Sn0.1Se1,0.12
Pb1I2,2.32
Cs1Bi3Se5,0.43
Cu3Dy1Se3,0.2
Tl1In1Se2,1.12
Ta1O1N1,2.4
Eu1Lu2Se4,1.7
Cs1Ce1Hg1Se3,1.94
Pb1Ga2Ge1Se6,1.96
Sr1La2S4,2.85
Eu1Sb2S4,1.2
K1Rb1Bi8Se13,0.64
La3Te4,0.43
Er2Mo3O12,1.04
Tl1Se1,0.67
Zn0.4Hg0.6Se1,0.5
Pb0.75Sn0.25Se1,0.04
Os1P2,1.2
Bi2S3,1.2
Nd1Te2,0.48
Cs1Sm1Zn1Se3,2.43
Dy3Al0.5Si1S7,2.22
Tl1Cr5S4Se4,0.85
Nd2Zr1S5,1.83
Bi5O7I1,2.76
Cs1La1Hg1Se3,2.46
Mg2Pb1,0.1
Tl1Se1,0.75
Re1Si2,0.2
Pb1Te1,0.32
K2Au2Sn1S4,2.75
Os1Sb2,0.3
Ba3Sn0.87Bi2.13Se8,0.79
Ce2Te3,1.22
Eu1Ga2Te4,1.7
Sm4Ga1Sb1S9,2.23
Hg3Zn1S2Cl4,2.65
Rb1Bi1S2,1.26
Hg0.8Zn0.2Te1,0.07
Hg1Sc1,0.24
Pb4Sb6Se13,0.65
Na1Yb1P2S6,1.85
Tl1As1Se2,1.35
W1Se2,1.45
Nd1Cu1O1S1,2.98
Cs2Hg6S7,1.63
Hg2Br2Te2,2.06
Ta1N1,2.3
K2Gd2Sb2Se9,1.33
Rb1Bi3Se5,0.8
Bi1I3,1.93
Dy3Ga1S6,2.81
La2Ga0.33Sb1S5,1.76
U1O1,1.5
Sm1S1,2.3
Ca1Nd2S4,2.7
Cs1Sm1Zn1Se3,2.63
Hg0.01Zn0.99Te1,2.17
Tl1Sc1Se2,0.79
Tl2O3,2.25
Eu3Bi4S9,1.18
Li1Mg1Bi1,0.4
Na1Bi1S2,0.44
Bi25Ga1O39,2.99
W1O3,2.8
Ir1S2,0.9
Eu1.83Ta15O32,0.23
Rb1Bi3Se5,0.43
Pb0.9Ge0.1Se1,0.3
Eu1Sn1Te2,0.6
Ba2In1Dy1Te5,1.35
Cs1Sm1Hg1Se3,2.37
Pb0.8Sn0.2Te1,0.08
K4Hf3Se14,2.02
Na1Ce1S3,2.15
Pb1Sn1S3,1.05
La1Ta1N2O1,2.0
Cs4Ta4P4Se24,2.38
Eu1Er2Se4,1.7
Tl1In1Se2,1.18
Bi2Cr1I2O11,2.4
Pr2Te3,1.5
Eu1Ga2Se4,2.16
Tl1In1Te2,0.7
Tl2Hg3Te4,0.9
Er2Te3,0.9
Bi8Te7S5,0.4
Pb1Ga2Si1Se6,2.17
Ta1Ga1S2,2.56
K2Hg3S2.69Se1.31,2.28
Tl1Se1,0.73
Pb0.93Te1Ga0.07,0.34
Li1Bi1S2,0.11
Tl3V1S4,1.76
Dy1Te1.4,0.6
Li0.5Pb1.75Ge1S4,1.95
Mn1.95Gd1In1.05S5,1.66
Bi1I3,2.0
Hg0.72Cd0.28Te1,0.21
Pb0.98Te0.98Ge0.02S0.02,0.34
Cs1Ho9Cd4Se18,2.06
Tl1Br1,2.67
La5Cu6.33O4S7,2.0
Pb0.99Sn0.01Se1,0.26
Ba3La3Cu6O14,1.8
Bi1I3,1.92
K2Au2Sn2S6,2.3
Re1Si2,0.13
Cu3Sm1Te3,0.23
K1Ce1Se4,1.54
K2Bi8Se13,0.59
Pb1Se1,0.35
Zn0.55Hg0.45Se1,0.8
Tl1Se1,1.3
Sm1Se1,0.46
Na1Sm1P2S6,2.54
Pt1P2,0.6
Gd2Te3,0.74
Pb1S1,0.29
Pt1Sb2,0.07
Ba1Au1I5O15,2.32
Pb0.85Ge0.15Te1,0.36
Eu1S1,1.69
Pb0.95Se0.95Ge0.05S0.05,0.29
Bi4V2O11,2.0
Hg1In2S4,2.0
Er1In3S6,1.28
Pb0.95Se1Sn0.05,0.22
Hg1Sn1O3,1.6
Eu1Te1,2.0
La1Zn1As1O1,1.5
Ca1La2S4,2.7
Ba2Ga1Er1Se5,1.95
Rb3Bi2I9,1.89
La1Nb1O1N2,1.7
Al1Bi1,0.4
Sm3Al0.33Si1S7,2.26
La1P1,0.54
Cs1Lu7S11,1.86
Os1Sb1Se1,0.4
Ce4Te7,0.5
Ce3Lu1Se6,1.1
Ta1Ga1S2,2.53
Pr1As1,1.0
Pb0.72Se0.72Sn0.28Te0.28,0.12
Hg5As1S2I3,1.57
Eu1H2,1.85
In1Bi2S4Cl1,1.5
Rb2Pt1I6O18,2.4
Bi1Se1I1,1.3
Cs1.43Cd1.43Bi2.57S6,1.28
Pb1O2,2.0
Pb0.75Sn0.25Te1,0.04
Cu3Dy1Te3,0.34
La1In1S2O1,2.73
Hg6.5As4Cd1Cl6,1.86
Tl2Te1Br6,2.06
Eu1Dy2Se4,1.8
Tm4Sb2Se11.68,1.22
Rb1Hg1Sb1Te3,0.2
Os1P1Se1,1.4
Pb1Te0.01Se0.99,0.26
Pb0.93Sn0.07Se1,0.08
La4Fe1Sb2Se10,0.85
Tl1Cr5S6Se2,0.94
Yb1As1,1.02
Bi1Se1Br1,1.54
Ag0.5Eu1.75Ge1S4,2.14
Pb6B1Br1O7,2.84
Eu1Ir4In2Ge4,0.26
Pb0.85Se0.85Ge0.15Te0.15,0.32
Pb1Se1,0.31
Pb3O4,2.12
K2Hg3Ge2S8,2.7
Bi1S1I1,1.58
Sm2Sn3Se9,0.7
La1Sb1,0.8
Hg6As4Cd1Br6,1.94
K0.8Hg1.2Sn2S8,2.78
Bi1.8Te3Sb0.2,0.15
Nd10O1Se14,1.98
Hg7In1S6Cl5,2.54
Bi1O1I1,2.12
Ta1Ga1S2,2.4
Pb0.97Se0.97Ge0.03S0.03,0.28
Yb1Se1,1.5
Pr1Sb1,0.66
Pb1Sb1O2Br1,2.67
Ba2In1Nd1Se5,2.2
Rb2Hg1P2Se6,2.32
Ag1Bi1P2Se6,1.4
Ba2Ga1Dy1Se5,2.35
Bi1Se1,0.4
Ag1Pb1Bi1Se3,0.13
Os1As1S1,1.3
Bi2Te2.1Se0.9,0.3
Nd3Te4,1.6
K6Yb3P5S20,2.6
Nd2Sn3Se9,0.5
Tl1In1Se2,1.07
K1Bi1S2,0.92
Sm1Cu1O1Se1,2.6
Ta0.67Zr1.33O1.89N1.63,2.48
Cs1Dy9Cd4Se18,1.99
Nd1As1,1.04
Cs1Ce1Cd1Se3,2.4
La1Si2,0.19
Pb0.97Se1Sn0.03,0.29
Hg0.6Cd0.4Se1,0.95
Ba1La2In2Se7,1.66
La2Zr1S5,2.01
Bi2Te2.97Se0.03,0.15
Ba2Cu2Th1Se5,1.75
Hg3Te2Bi2Cl8,2.8
Ta1.33Zr0.67O0.12N3.03,1.71
Bi2O3,2.85
Pb0.8Ge0.2Te1,0.4
Pb0.92Sn0.08Te1,0.16
Ce2Se3,1.75
Os1As2,0.9
La2Mn1Ni1O6,1.4
Sr1Nd2S4,2.45
Hg0.796Cd0.204Te1,0.06
Ba2Ga1Gd1Se5,1.87
Hg1Ga2S4,2.84
Tl1Cr5S3Se5,0.8
Pb0.7Ge0.3Te1,0.48
Hg1Se1,0.12
Li3Bi1,0.7
Eu1In2S4,1.5
La1S1.86Se0.14,2.5
Dy4S4Te3,1.43
Bi2Te0.9Se2.1,0.28
Tl1As1S2,2.15
H6Pt1I6O20,2.4
Ho1N1,1.79
Cs1Lu7Se11,1.78
Pb0.999Se1Sn0.001,0.24
Pb6B2Mo1O12,2.9
Eu3P2,1.2
Bi1Te3Sb1,0.19
Pr2Ge2Se7,1.32
Cs1Sm1Cd1Se3,2.45
La2Co1V1O6,0.41
Tl4Cu1Te1O6,2.2
Ta1Ga1Se2,2.15
Pr1Te1.9,1.0
Ba2In1Sm1Te5,1.36
Bi1O1Br1,2.92
Hg1Te1,0.19
Sr1Ta1O2N1,1.99
Pb0.99Te1Tl0.01,0.59
K3Sm1As2S8,2.2
Eu1Al2O4,2.74
Yb4Sb2S11.25,1.71
Pb14B2O14Br6,2.62
Re1Se2,0.99
Dy1Te1.45,0.6
Yb1Sb1,1.0
Nd1.33Lu0.67S3,1.5
La1In3S6,1.03
Ir1P2,1.1
Yb1Ga2S4,2.3
Cu1Sm1Se2,2.1
Pb0.85Se0.85Sn0.15Te0.15,0.18
Rb1Bi1Se2,0.72
Na1Bi1Se2,0.32
Pb1S1,0.3
Pb1Te1,0.34
Tl2Te3,0.51
Tl1Sb1S2,1.88
Bi4Pd1Se4O12,2.06
Pb0.8Se0.8Ge0.2Te0.2,0.36
Ir0.67S2,2.0
Pb2Mn1O4,1.5
Cu2Ta4O11,2.6
Ho2Mo3O12,1.68
Li4Hg1Ge2S7,2.75
Pb1Te1,0.62
Hg0.8Cd0.2Se1,0.95
Pb1Te1,0.31
Na1Bi1S2,0.4
Sn3W1O6,2.49
Pb0.8Se0.8Sn0.2Te0.2,0.14
Sm1Te1,0.38
Zn0.5Hg0.5Se1,0.6
Bi2S3,1.3
Re1S2,1.0
Ba2Ga1Dy1Te5,1.13
Bi2Te2.97Se0.03,0.16
Ag1Bi1S2,0.9
Tl1Se1,0.71
Pr2Yb1Cu1S5,1.25
La2O2Mn1Se2,1.6
Er3Te4,0.9
Rb1Tb1Se2,2.5
Pb1Cr1O4,2.25
Ag0.5Pb1.75Ge1S4,1.83
Cs1Er9Cd4Se18,2.09
Re1S2,1.1
Pb0.99Sn0.01Se1,0.17
Tl1In1Se2,1.19
Bi2Te2.7Se0.3,0.21
K2Hg1P2Se6,2.25
Tl2Pr1In1Se4,0.93
Gd2Zr1S5,1.88
Pr2S3,2.68
Pb1Bi1O2Br1,2.47
Yb1S1,1.1
Pb0.75Ge0.25Te1,0.44
Pb0.96Te1Ga0.04,0.37
Nd1Lu1Se3,1.61
Bi6Cu3S10I1,0.72
Ba1La2In2S7,1.87
Tl1Sc1S2,1.51
Zn0.75Hg0.25Se1,1.4
Dy2Mo3O12,1.92
Li2Pt1O3,2.3
Pb1Se0.01S0.99,0.37
Eu2Sn1Se5,1.07
Ag0.5Pb1.75Ge1Se4,1.51
Pr2S3,2.6
Nd2Hf1S5,0.7
Sn2Bi1S1I5,1.32
Tl1S1,1.36
Bi2Te2.7Se0.3,0.2
Pt1Sb2,0.4
Pr1Ta1N2O1,2.0
K1Bi1S2,0.86
Tl6Cu1Te2O10,2.3
Pb1N6,2.98
Cs3Bi2I9,1.8
Tl3Ta1S4,2.7
Bi1Se1I1,1.28
Tl1Cr5S7Se1,0.97
Zn0.65Hg0.35Se1,1.0
Pb0.95Ge0.05Se1,0.28
Ba2In1Ce1Te5,1.35
Pb1Cu1Sb1S3,1.31
Sn2Bi1S2I3,1.22
Tl1In1Se2,1.22
Eu2Ga2Ge1S7,2.3
Tl1Hg6Se4Br5,2.8
La2Sr2Pt1O7.13,2.52
Hg0.9Cd0.1Se1,1.5
Sm1Sb1,0.59
Ir1As2,1.0
Pb1Te0.5Se0.5,0.29
Cu2Ta4O11,2.7
Re1S2,1.33
Pr4In1Sb1Se9,1.89
Cu2Ta11O30,2.59
Tl2Te1I6,1.5
La10O1Se14,2.04
K2La2Sb2S9,2.2
Bi2Mo3O12,2.9
Ta1Ga1S2,2.54
Eu1Tm2Se4,1.8
Ti1Tl1Se2,0.56
Ca3La2Sn3S12,1.45
Cs2Pt1I6O18,2.4
Bi1S1I1,1.64
Eu1Cu2Sn1S4,1.85
K2Ho4Cu4S9,2.43
La2Co1Ti1O6,1.02
K2Au2Sn2Se6,2.28
Ba1Ir2Ge4Se6,1.33
Ca5Bi14O26,2.6
Gd6Ge2.5S14,2.2
Bi0.6Te3Sb1.4,0.2
Dy2S3,2.91
Na1Bi1Se2,0.28
Tl2Te3,0.48
Tl2Te3,0.7
Tl1Sb1S2,1.54