composition,band_gap
K8V8F32,1.979299999999999
K2V2H8O14,2.8415
K16V16N32,0.8734000000000001
K4V4P8O28,2.0781
K4V4S8O36,1.8958
K2Y2H16N8,2.6774
K1Y1Nb6Cl18,1.1149
K4Y4P8Se24,1.938699999999999
K2Y4Cu2S8,1.011499999999999
K2Y2Be2F12,9.999999999976698e-05
K2Y2Ge2S8,2.423
K1Y1S2,2.3221
K2Y2Si2S8,2.806199999999999
K1Y1Te2,1.2981
K1Zn4Sb3O12,1.6514000000000002
K1Zn4P3,0.5011
K2Zn2As2,0.2742
K2Zn2P2,0.839599999999999
K2Zn2Sb2,0.443
K2Zr12B2I28,0.7154
K4Zr24C4Cl60,1.1945
K2Zr12Mn2Cl28,1.2413
K2Zr2Cu2S6,0.592499999999999
K2Zr2Cu2Se6,0.214399999999999
K4Zr4V4F28,2.4489
Kr1F2,2.92
Li8Co16O32,0.665899999999999
Li8Ni16O32,0.869599999999999
Li10Br1N3,1.3667
Li20Ge2P4Se24,1.506599999999999
Li20Si2P4Se24,1.606599999999999
Li20Sn2P4Se24,1.5635
Li20Zn8O18,2.5347
Li28Be12B18O54,0.0084
Li28Mg2Si8,0.098999999999999
Li60Cr8N36,1.3355
Li66Cu63Si42,0.0487
Li2Ag1Sb1,0.1478
Li4B4S10,2.4427
Li4B4Se10,1.704699999999999
Li4Cd2Ge2O8,2.455
Li4Cd2Ge2S8,2.2131
Li4Cd2Sn2S8,1.9176
Li4Co6Se8O24,2.6403
Li8Co12Sb4O32,0.8174999999999991
Li8Co4Ge4O16,2.6944
Li8Co4Si4O16,2.996299999999999
Li8Cr12Sb4O32,2.9106
Li4Cr10Si8O28,2.6538
Li6Cr3Fe3O12,2.0383
Li12Cr6O24,2.9665
Li4Cu6Se8O28,0.6886000000000001
Li8Fe8Mo12O48,2.656399999999999
Li4Fe6Sb2O16,1.891799999999999
Li4Fe2F12,0.323099999999999
Li8Fe4Ge4O16,2.1565
Li8Fe4O12,0.091399999999999
Li4Ga14,0.1587
Li8Ge4N8,2.695099999999999
Li8H4N4,2.0831
Li8Mg4H8N8,2.3086
Li2Mg1Cd1P2,2.004
Li8Mg4Mn12O32,1.9551
Li8Mg4Si4,0.198399999999999
Li2Mg1Sn1,0.047499999999999
Li4Mn6Se8O24,2.7896
Li4Mn6Co2O16,0.3865
Li8Mn12Ni4O32,1.399299999999999
Li4Mn6Sb2O16,1.0917
Li8Mn12Zn4O32,1.5525
Li4Mn2Cl8,1.926699999999999
Li4Mn2F12,2.7177
Li8Mn4Ge4O16,2.0368
Li8Mn4O12,1.368399999999999
Li8Mn4Si4O16,2.176599999999999
Li4Mn2Sn2S8,0.070699999999999
Li4Mo6S8,1.354
Li4Mo2F12,1.7655
Li4Mo2O6,1.3636
Li4Ni6Te2O16,0.207799999999999
Li4Ni2O6,1.3307
Li4O4,1.974299999999999
Li4P14H54N18,2.090499999999999
Li4Pd2F12,1.8867
Li2Pd1O2,1.1973
Li4Pd2O6,1.3654
Li4Ru2F12,0.0398
Li2Se1,2.9746
Li8Se8O28,2.9444999999999992
Li4Sn2Se6,1.479699999999999
Li4Sn2Te2O12,2.0439
Li8Tc4O12,0.409
Li2Te1,2.4914
Li8Te4O16,2.4198
Li8Te4S12,1.5980999999999992
Li2Ti1I6O18,2.7776
Li8Ti12Co4O32,2.4572
Li8Ti12Mn4O32,2.4041
Li8Ti12Ni4O32,2.7606
Li4Ti12Zn6O32,2.8926
Li4Ti2Te2O12,2.4255
Li4V6Sb2O16,1.347899999999999
Li4V6Sn2O16,1.2894
Li4V2F12,2.1121
Li8V4Si4O20,2.3621
Li2Y1In1,0.047899999999999
Li2Zn1Cd1P2,1.0652
Li4Zn2Ge2S8,2.1846
Li12Zn6Sn18O48,1.943
Li4Zn2Sn2S8,2.1758
Li2Zr1N2,1.5618999999999992
Li6As2,0.6364999999999991
Li12As28H156N52,1.8092
Li12As4S12,2.3133
Li6Ca2Mn2N6,0.073199999999999
Li6Cr4P6O24,2.9721
Li12Cr8P12S48,1.384599999999999
Li6Cr2O8,1.1496
Li12Cu4F24,1.0976
Li12Cu4O12,1.178
Li6Cu2S4,2.0335
Li3Fe4Sb1O8,1.513
Li24Ga8N16,2.738699999999999
Li6H8Rh2,0.391799999999999
Li12H24Rh4,2.6058
Li24In8N16,1.135999999999999
Li6Mn4Se8O24,0.7033
Li3N1,0.984
Li3Ni2Sb1O6,2.8084
Li12Ni4F24,2.3599
Li6P2,0.6996
Li12P28,1.831999999999999
Li12P4S16,2.8091
Li6Sb2,0.4833
Li12Sb4S12,2.4016
Li6Sb2S8,2.2895
Li24Sc8N16,2.401399999999999
Li12V8P12O48,1.8718999999999992
Li18V6F36,2.4401
Li3V1S4,1.9592
Li24Y8N16,2.079799999999999
Li4Ca3Si2N6,2.2904
Li4Co1Te1O6,2.3692
Li4Cr3Fe1O8,2.3536
Li16Ge4S16,2.520299999999999
Li8H12Ru2,2.388
Li8H2N2,1.9079
Li4Mg1H3N3,2.9272
Li8Mn10O24,1.0113
Li8Mn2Cr2O12,1.0548
Li8Mn2Ge4S14,1.5209
Li8Mn2Sn4Se14,1.065
Li8Mo2O10,2.8472
Li4N1Cl1,1.7617
Li8Se2O10,2.4442
Li16Sn4S16,2.3564
Li8Te2O10,2.7111
Li16Ti4S16,2.3658
Li16V4B8O24,2.9536
Li8Zn2H24N12,2.6176
Li5Br2N1,2.0781
Li5Cr1Cl8,1.7483
Li80Ge16N48,0.0014
Li15I3O18,2.590699999999999
Li5Mn5Se8O24,0.8681999999999991
Li10Mn14O32,0.871
Li5Sb1O5,2.914
Li20Sb4S12I8,2.7011000000000003
Li80Si16N48,2.159999999999999
Li10Si2P6,1.3160999999999992
Li10Ti12Fe2O32,2.7030000000000003
Li80Ti16N48,1.5392
Li6As1S5I1,1.5398
Li24Co4O16,1.9349
Li12Cr2N8,1.4398
Li12Mn2S8,1.9467999999999992
Li12Mo2N8,2.6113
Li6Ni1Cl8,1.3726
Li6Te1O6,2.798
Li6V1Cl8,1.5371
Li7Cu2N3,0.320899999999999
Li14I2N4,1.91
Li56Mn8N32,0.759799999999999
Li28P4Se24,0.9336
Li56Sb8N32,2.245
Li14V2As8,0.8996000000000001
Li16Be12P14O58,0.1894
Li16Se2N4,1.7523
Li16Te2N4,2.171399999999999
Li16V6P16O58,1.0229
Li18Mn6P16O58,1.4499
Li2Ag6O4,0.727799999999999
Li2Ag2F8,1.3393
Li4Ag4O4,1.222799999999999
Li2Ag2O4,0.6381999999999991
Li2Al2P4S12,2.749
Li1Al1Ge1,0.052699999999999
Li1Al1Si1,0.112099999999999
Li2Al2Te4,2.4411
Li8As8,0.3285
Li2As2Xe6F24,2.9661
Li4As12H8O36,2.8119
Li2As2S4,1.0664
Li2As2Se4,0.7504000000000001
Li2B24P2C2,2.4016
Li2B26C4,2.7108
Li4B12,0.091899999999999
Li2B12C2,1.392199999999999
Li2B2C2,0.8471000000000001
Li2Be2As2,1.0077
Li4Be4N4,2.6858
Li2Be2P2,1.1585
Li1Be1Sb1,1.010499999999999
Li4Ca40Mg4Sb36,1.213099999999999
Li4Ca44Sb36,0.725699999999999
Li2Ca4Cu2N4,1.039699999999999
Li2Ca4H2C6,1.2992
Li4Ca8In4Ge8,0.148499999999999
Li4Ca12As8H4,1.441699999999999
Li2Ca6Ru2O12,0.3111
Li4Ca12Si8N20,2.4382
Li1Ca4B3N6,2.1934
Li4Ca28Ge12H12,0.7149000000000001
Li4Ca4Al4N8,2.7797
Li4Ca4As4,1.073299999999999
Li4Ca4Ga4N8,2.1319
Li4Ca4N4,1.378499999999999
Li4Ca4P4,1.398699999999999
Li4Ca4Sb4,0.6443000000000001
Li2Ca2V2F12,2.6309
Li3Cd3B3O9,2.115599999999999
Li4Co4P16O48,1.3617
Li2Co2F8,1.9285
Li1Co1O2,0.6623
Li4Co4Sb4O16,1.358699999999999
Li2Cr6O16,1.9279
Li4Cr16P12O48,2.642899999999999
Li1Cr4Ga1S8,0.376199999999999
Li1Cr4In1S8,0.3692
Li2Cr2P4O14,2.7339
Li1Cr1S2,0.6463000000000001
Li4Cr4Sn4O16,2.847299999999999
Li4Cu4P12O36,0.7209000000000001
Li2Cu4F14,0.2837
Li4Cu4O4,1.4376
Li1Cu1O2,0.3163
Li4Fe4C8O24,2.1032
Li4Fe4P16O48,2.937999999999999
Li4Fe4Se8O24,2.6596
Li2Fe4F12,1.7058
Li4Fe4As4O16,2.2859
Li4Fe4Br16,0.9341
Li4Fe4Cl16,1.2679
Li2Fe2F12,1.2569
Li2Fe2O4,1.712499999999999
Li2Fe2P4O14,1.7443
Li4Fe4Sb4O16,1.3545
Li4Ga20O32,2.8766
Li4Ga4Br12,2.9955
Li4Ga4I12,2.2732
Li4Ga4I16,2.5693
Li4Ga4S8,2.9608
Li4Ga4Se8,2.0656
Li2Ga2Te4,1.5885
Li2Ge4N6,2.763
Li2Ge2Rh2O8,1.689499999999999
Li1H1,2.981
Li4In4C8N16,2.8984
Li4In4Ge4O16,2.4008000000000003
Li4In4I16,2.3673
Li2In2O4,1.814299999999999
Li4In4S8,2.187499999999999
Li2In2Se4,1.5731000000000002
Li2In2Te4,1.3847
Li1Mg1As1,1.372299999999999
Li1Mg1B1N2,2.6464
Li1Mg1N1,2.4462
Li1Mg1P1,1.7113
Li1Mg1Sb1,1.4438
Li4Mn4C8O24,0.904999999999999
Li4Mn4P16O48,1.3434
Li2Mn4O8,0.426899999999999
Li2Mn4Te2O12,0.012099999999999
Li4Mn4As4O16,1.9316
Li2Mn2F8,1.855
Li3Mn3Fe3F18,2.4344
Li4Mn4Nb4O16,2.7137
Li2Mn2Ni2O8,0.205499999999999
Li1Mn1O2,1.150399999999999
Li4Mn4P8O28,1.2405
Li2Mn2Rh2O8,0.043499999999999
Li4Mn4Sb4O16,2.014
Li2Mn2V2O8,1.857499999999999
Li2Mo4P6O24,1.3835
Li2Mo12Cl26,2.7719
Li2Mo2I2O12,2.2334
Li2Mo2P4O14,1.536099999999999
Li2N2O6,2.9369
Li4Nb12Cl32,0.8827
Li2Nb12Cl38,0.7552000000000001
Li4Nb4Fe4O16,2.2421
Li4Nb4N8,1.1528
Li2Nb2O4,1.579499999999999
Li2Nb2S4,0.713499999999999
Li2Nb2Se4,0.7318999999999991
Li3Ni3O6,0.018
Li2Ni2Rh2F12,1.6961
Li4Ni4Sb4O16,1.920199999999999
Li8P8,0.8094999999999991
Li8P56,1.688199999999999
Li1Rh1O2,1.515299999999999
Li1Ru1F6,0.9999
Li2S8,2.1989
Li2Sb6O16,0.974399999999999
Li4Sb4O12,2.1379
Li2Sb2S2,0.385899999999999
Li2Sb2S4,0.091099999999999
Li1Sc1S2,1.4856999999999991
Li8Si16B8,1.166799999999999
Li4Si4B24,1.7307
Li4Sn4H24N12,2.881
Li2Sn4N6,0.8538999999999991
Li2Te2H24N8,1.3014
Li12Te36,0.2237
Li2Ti4P6O24,2.4425
Li2Ti4N6,1.786099999999999
Li4Ti4Cr4O16,1.751399999999999
Li4Ti4V4O16,0.762
Li1V1C2O6,2.0581
Li2V2O4F4,2.2316000000000003
Li4V4P16O48,2.1576
Li8V8Si16O48,2.1872
Li4V8P12O48,1.3092
Li2V4P10O32,0.032999999999999
Li2V6O4F12,1.4936
Li2V6Te4O24,1.924799999999999
Li2V6Zn4O16,1.377499999999999
Li2V2F8,2.455699999999999
Li4V4N8,1.3312
Li4V4O12,2.8357
Li4V4P8O28,2.1466
Li4V4P4O16,2.777299999999999
Li4V4P4O20,1.5636
Li2V2Sn2O8,1.4519
Li1Y1S2,1.920399999999999
Li1Y1Se2,1.523899999999999
Li1Zn1As1,0.5518000000000001
Li1Zn1N1,0.5187
Li1Zn1P1,1.3386
Li1Zn1P1S4,2.731199999999999
Li2Zn2Rh2F12,1.5896
Li2Zn2Sb2,0.4057
Mg2Al4B56,0.8259999999999991
Mg2B24C4,2.1397
Mg8B16C16,1.3298
Mg1Be2As2,0.404199999999999
Mg1Be2P2,0.6341
Mg2Cr4S8,0.9995
Mg4Cu8O16,0.3094
Mg2Ga4O8,2.6624
Mg6Ga12S24,2.3518
Mg2In4S8,1.764399999999999
Mg4In8Se16,0.798099999999999
Mg1In2Te4,1.4769
Mg4Sb8O16,2.5763
Mg2Sb4O12,1.037499999999999
Mg2Sc4S8,1.5651000000000002
Mg4Si8B48,2.0585
Mg2Al2Se5,1.936099999999999
Mg4B48C2,2.816
Mg4Co2H10,0.194699999999999
Mg2Fe1H6,1.913999999999999
Mg2Ge1,0.1689
Mg8Ge4S16,2.58
Mg8Ge4Se16,1.493799999999999
Mg4Mn6O16,1.399499999999999
Mg8Ni4H16,1.571899999999999
Mg4Sb2N6,0.000199999999999
Mg2Si1,0.217999999999999
Mg8Si4S16,2.969099999999999
Mg8Si4Se16,2.131
Mg4Sn2O8,2.7149
Mg4V4Co2O16,2.5147
Mg4V4O14,2.7138
Mg4V2N6,1.8994
Mg4Zn2As4,0.5345
Mg2Zn1P2,0.9775
Mg24As16,1.6654
Mg3As1N1,2.281799999999999
Mg3Mn5B4O16,0.8500000000000001
Mg6Mn2H14,1.6630999999999991
Mg6Mo2N8,2.9642
Mg24N16,1.952799999999999
Mg3Nb6O11,0.2437
Mg24P16,1.798099999999999
Mg24Sb16,1.3212000000000002
Mg3Sb1N1,1.623399999999999
Mg3Si9B36C1,1.042
Mg6Tc2H14,2.6125
Mg6Te2O12,2.9101
Mg8Nb4S18O72,2.333799999999999
Mg8Sb4O18,2.4289
Mg4Si1Ge1,0.005399999999999
Mg24Mn4O32,2.2891
Mg2Ag4P4S12,2.2038
Mg4As8Xe16F80,2.897199999999999
Mg4As8Xe8F72,2.6775
Mg4As16,0.8144
Mg4B16,0.364099999999999
Mg4B28,1.541399999999999
Mg2B18N2,1.6752999999999991
Mg1Co1F6,0.0078
Mg1Cr1F6,1.6140999999999992
Mg2Cr2O8,2.3991
Mg2Cu4Si2S8,1.673099999999999
Mg2Cu4Si2Se8,0.7726000000000001
Mg4Cu4P4,0.018499999999999
Mg2Cu2P4O14,0.3723
Mg4Ge4N8,2.6358
Mg12H12N12,2.2587
Mg1Mn1F6,2.8029
Mg1Mn1N2,0.000399999999999
Mg1Mn1V4O12,2.1181
Mg1Mo1F6,2.4449
Mg2Mo2N4,0.7411000000000011
Mg2Nb10P18O72,2.3163
Mg2Ni2P8O24,0.086899999999999
Mg2P8,0.7289000000000001
Mg2P2S6,2.7986
Mg2P2Se6,2.0382
Mg1Pd1F6,1.8285
Mg1S1,2.7574
Mg2S4,1.133699999999999
Mg4Sb12Xe4F92,1.6103
Mg2Se2,2.5765
Mg4Se8,1.968499999999999
Mg2Se2O8,2.868999999999999
Mg2Si2As4,1.303199999999999
Mg2Si2P4,1.3728
Mg6Sn6S18O72,2.243
Mg2Sn2As4,0.4034
Mg4Sn4N8,1.0648
Mg1Te1,2.3186
Mg4Te8,1.116199999999999
Mg2Te2O8,1.475099999999999
Mg6Ti6S18O72,2.2063
Mg2Ti4O10,2.7175
Mg1Ti4P6O24,2.4111
Mg2Ti8Fe2O20,1.394299999999999
Mg1Ti1N2,0.365
Mg6V12O24,0.000199999999999
Mg1V2O6,2.7654
Mg1V4Cu3O14,0.348099999999999
Mg2V2Cr2O8,1.857899999999999
Mg2V2O6,2.7895000000000003
Mg2Zn4As4O16,2.705
Mn1Al2Te4,0.325199999999999
Mn4As8O16,2.0961
Mn4As8O24,1.7241
Mn2Fe4O8,0.9977
Mn1Ga2S4,1.1791
Mn1Ga2Se4,0.8566
Mn2I4O12,2.2873
Mn1In2Te4,0.344399999999999
Mn4N8O24,2.7614
Mn4N16O48,0.1423
Mn1Ni6O8,1.4245
Mn4P8O24,2.304
Mn6P18O54,1.3101999999999991
Mn6Sb12O36,0.512
Mn2Sb4Se8,0.3928
Mn2Se4O12,1.5967
Mn15Br6O20,0.170699999999999
Mn8S12O48,0.6835
Mn8B4O16,0.5381
Mn4Co2O8,0.6991
Mn2Cr3Fe1O8,1.7368
Mn8Ge4O16,1.0831
Mn4H4S2O12,2.7417
Mn2In1Ag1Te4,0.0293
Mn4In2Sb2O12,0.486299999999999
Mn4Mo2P24,0.1193
Mn8O8F36,0.613499999999999
Mn32O48,0.0721
Mn2P2O7,2.2949
Mn4Sb6I6O10,2.017899999999999
Mn8Si4O16,1.988499999999999
Mn8Si4S16,0.3536
Mn4Te6O16,2.1851
Mn4Te2O12,0.5941999999999991
Mn2V2O7,1.204
Mn16V8H8O40,1.541799999999999
Mn4Zn2O8,0.728699999999999
Mn6B4O12,2.0333
Mn6Co4O16,0.8285
Mn6P4O16,2.9497
Mn6Ag4P8O28,1.7732
Mn3Cd2O8,1.214799999999999
Mn6H4Se6O20,0.181599999999999
Mn6Nb12O22,0.240599999999999
Mn6O8,0.8134999999999991
Mn6Sb4I8O8,1.6919
Mn6Sb10I6O18,0.7864000000000001
Mn12Si4O16F8,2.6069
Mn6Te2O12,0.7581999999999991
Mn6V4O16,1.8537999999999992
Mn3Zn2O8,1.229899999999999
Mn8Nb4O18,0.015499999999999
Mn16Si28,0.755599999999999
Mn8Zn6Ni4O24,0.3174
Mn12Ag2P14O48,2.309199999999999
Mn14Fe2Cl6O20,0.9382
Mn28Ge4O48,0.5022000000000001
Mn28Si4O48,0.3909
Mn16Cl6O20,0.454499999999999
Mn2Ag4Ge2Se8,0.0088
Mn1Ag1O2,0.289499999999999
Mn2Al4O8,2.6578
Mn4Al4Si4O20,1.7544
Mn2As4F24,2.7681
Mn4As4H8O20,2.2527
Mn8As8H24O40,2.1119
Mn1Br2,1.5962
Mn1Cd4Te5,0.5243
Mn1Cd1Se2,0.2055
Mn1Cd1Te2,0.3984
Mn1Cl2,1.792599999999999
Mn2Cr4O8,2.2026
Mn1Cr4Cd1Se8,0.546899999999999
Mn2Cu4Ge2S8,0.2648
Mn2Cu4Si2Se8,0.4495
Mn1Cu1O2,0.178699999999999
Mn4F8,2.3648
Mn2F6,0.4936
Mn8F32,1.3254
Mn1Ga1Cu2Se4,0.0344
Mn2Ge2O6,1.6731999999999991
Mn4H8Se8O32,2.2486
Mn4H8Se4O20,1.9027
Mn1H6N2Cl2,1.5529000000000002
Mn4H24O12F12,1.5208
Mn1I2,1.170799999999999
Mn2Mo2O8,1.409699999999999
Mn4Nb8O24,1.924
Mn4O4,1.310499999999998
Mn6O12,0.540999999999999
Mn4P8H4O28,1.6962000000000002
Mn6P24,0.4786
Mn4P4H8O20,2.4307
Mn2P2O8,0.9867
Mn2P2S6,0.1562
Mn2S2O8,2.8118
Mn4Se8O20,2.0513999999999992
Mn2Si2Ag4Se8,0.6252
Mn1Sn1B2O6,2.5711
Mn1Sn1F6,2.4058
Mn2Sn2O6,0.877599999999999
Mn2V4O12,1.8524
Mn1Zn1Cr4S8,0.3357
Mn1Zn3Cr8Se16,0.141
Mn1Zn4Se5,0.6608
Mn1Zn1F6,2.3517
Mn1Zn1Se2,0.2439
Mo2Br4O4,1.4684
Mo4N8O32,2.8207
Mo2P10O30,0.1494
Mo8N4Cl28,0.079299999999999
Mo4P4O22,2.0302
Mo4P6O22,1.1251
Mo8P12O52,0.8492000000000001
Mo4Ru2Se8,0.631699999999999
Mo12S6Br12,0.987499999999999
Mo12S28Cl16,1.6862
Mo8P14O48,0.893999999999999
Mo32O92,0.9108
Mo36O104,0.4984
Mo4As8O28,2.5228
Mo12Br24,2.1004
Mo4Br12O4,0.9067
Mo12Cl24,2.454799999999999
Mo1Cl6,1.094199999999999
Mo4F20,0.9911
Mo4H32S16N8,1.7787000000000002
Mo12I24,1.6796
Mo4N4Cl12,1.6768
Mo4O12,1.834299999999999
Mo4P8N4Cl48,1.691
Mo4P8O28,1.9637
Mo2P2Cl18,0.0249
Mo2P2O10,2.4078
Mo1S2,1.2042
Mo4S8Cl12,1.4385
Mo2Se4,1.301
Mo4Se4S8Cl20,2.016
N4Cl4O4,1.98
N2Cl2O2F8,1.3315
N6O12,2.8265
N16O48,0.9199
Na2Ge6P6,1.085499999999999
Na2Mo6Se6,0.3974
Na2Te6Mo6,0.1876
Na10Ca1Sn12,0.416399999999999
Na20Co8O18,1.4835999999999991
Na20Nb2Ga2As12,0.9536
Na10Sr1Sn12,0.6698000000000001
Na20Zn8O18,1.4874
Na96Sn8Ge64,0.3291
Na28Al8O26,2.5926
Na14Cd2O9,1.3896
Na14Mn2O9,0.5456000000000001
Na30Cr14N38,0.6348
Na30Mo14N38,1.3736000000000002
Na30Sn2Ge16P2,0.0235
Na8Ga12Sb12,0.1913
Na40Zn14Sn24,0.0228
Na40Zn16Sn22,0.023199999999999
Na4Ag2As2,0.7266
Na4Ag2F8,0.561299999999999
Na4Ag2Sb2,0.654999999999999
Na16Al16As24,1.5317999999999992
Na8B8S20,2.5898
Na4B4Se14,1.4882
Na16Be8O16,2.725
Na4Cd2Ge4S12,2.2385
Na4Cd6Si6O20,2.453299999999999
Na16Cd8O16,0.7846000000000001
Na2Cd1Sn1S4,1.9501
Na4Co2Ge2O8,1.9531
Na4Co2Ni2F14,1.4955
Na8Cr8O28,2.5265
Na2Cr1H2F8,1.589
Na4Cr2O8,2.8731
Na4Cu2C4O12,0.5033000000000001
Na4Cu2N8O24,0.6062000000000001
Na4Cu2P8O24,0.8701999999999991
Na4Cu2As2,0.6542999999999991
Na4Cu2F8,0.9147
Na4Cu2P2,0.6575000000000001
Na4Cu2P4O14,0.4979
Na8Cu4Sb4S12,1.2419
Na4Fe2Ni2F14,2.7689999999999992
Na4Fe2O6,1.8938
Na16Ga16As24,1.0249
Na4Ga4Ge2S12,2.6215
Na4Ga4Se6,1.362699999999999
Na8Ge8S20,2.514199999999999
Na8Ge8Se20,1.4997
Na64Ge32N64,2.1512
Na4Ge2O6,2.9873000000000003
Na8Ge4S12,2.4515
Na8Ge4Se12,1.6256
Na4Ge2Te2O12,2.6629
Na2H4Pd1,2.2472
Na2H1F4,1.3565
Na4In4Ge2S12,2.190699999999999
Na4In4Ge2Se12,1.3672
Na4In4Si2S12,2.2375
Na8Li12Co4O16,1.483699999999999
Na8Li4Al4P8,1.992999999999999
Na8Li4Ga4As8,1.2155
Na8Mg8Ni4H24,1.7138
Na4Mg2V2F14,2.5192
Na4Mn2P10O30,1.3872
Na8Mn8S12,0.4915
Na8Mn8Si8O28,2.498499999999999
Na4Mn6P6O24,0.0619
Na4Mn6O14,1.405699999999999
Na8Mn4F20,1.693
Na8Mn4N8,0.7166
Na4Mn2O6,1.9179
Na4Mo4Se4O22,2.7771999999999992
Na4Nb4P12O42,2.6478
Na2Nb4Se4O19,2.3695
Na4Nb2F12,0.296099999999999
Na2O1,1.8736
Na6O6,1.7361
Na4P4Pd2O14,1.6031
Na4P2S6,2.6345
Na8P4Se12,1.7908
Na4Pd2N8O24,1.7034
Na4Pd2S16O52,1.545599999999999
Na2Pd1Se2O8,1.7401
Na2Pd3O4,0.4208
Na8Pd4Cl16,1.1864
Na4Pd2F8,1.2356
Na6Pd3F18,2.0894
Na32Pd16O48,0.8889999999999991
Na4Pd2S4,0.9447999999999992
Na4Pd2Se4,0.6253000000000001
Na2S1,2.4399
Na8S20,1.7772
Na2Se1,2.0153
Na4Se4O14,2.8061
Na8Si8Se20,2.6679
Na32Sn16As32,0.477599999999999
Na16Sn8O16,2.2658
Na8Sn4O12,2.7011000000000003
Na48Sn24Se72,1.3646999999999991
Na8Sr12As16,0.543899999999999
Na8Sr12P16,0.932099999999999
Na8Sr4V12O36,2.251
Na4Sr2V8O24,2.873
Na2Tc1F6,1.5541
Na2Te1,2.0282
Na8Te8O20,2.9290000000000003
Na4Te4O14,0.7191000000000001
Na4Te8Mo2O24,2.4592
Na8Te4O16,1.8037
Na8Te4S12,1.7828
Na8Te4Se12,1.2031
Na16Ti16Se72,0.7175
Na8Ti8Si8O36,2.9482
Na4Ti6O14,2.9953000000000003
Na2Ti6O13,2.916699999999999
Na8Ti4S8O4,2.4798
Na4Ti2Si2O10,2.9703
Na2Ti1Te1O6,2.4574
Na12V18O42,2.4946
Na8V12P8O52,1.7762
Na8V4F20,2.4549
Na4V2Ni2F14,2.4654
Na8V4O4F16,2.991799999999999
Na4Zn2Ge4S12,2.266499999999999
Na4Zn2Sn4S12,1.7270999999999992
Na8Zn8O12,1.2488
Na8Zn8S12,2.1599
Na6Zn9Si6O24,2.9909
Na16Zn8Fe8F56,2.9496
Na4Zn2Ge2O8,2.6397
Na8Zn4O8,1.4567
Na4Zn2Se4,2.139599999999999
Na2Zr1Cu2S4,0.0011
Na4Zr2S6,1.9267999999999992
Na4Zr2Se6,1.3166
Na3V5Se10,0.1373
Na6Ag2O4,1.1444
Na6Ag2S4,2.1755
Na6Al2As4,0.8472000000000001
Na6Al2H12,2.8145
Na6Al2P4,1.346
Na12Al4Se12,2.383099999999999
Na12Al4Te12,1.914499999999999
Na18As6,0.064
Na24As56,1.5304
Na12As4S12,2.5223
Na12As4Se12,2.008099999999999
Na24B40Se72,2.9704
Na12B4N8,1.6485
Na12B4O12,2.9485
Na6B2S6,2.5824
Na3Br1O1,1.8815
Na6Ca6Al2As8,0.9426
Na6Ca6Al2Sb8,0.4586
Na3Cl1O1,2.0299
Na3Co2Sb1O6,0.8215000000000001
Na6Co2F12,2.7172
Na6Co2O6,0.8294
Na12Cr8As12O48,2.7029
Na6Cr4P6O24,2.9419
Na12Cr8P12S48,1.3855
Na12Cr4O16,1.033799999999999
Na6Cu2F12,1.2227
Na12Cu4O8,1.3047
Na36Cu12O36,0.774
Na6Fe2P4O16,1.6539
Na12Fe8As12O48,2.2743
Na6Fe6P8O32,1.7179000000000002
Na12Fe4O12,2.3505000000000003
Na12Ga12Te8O48,2.0272
Na12Ga4S12,2.7699
Na12Ga4Se12,2.0844
Na12Ge4Se12,1.8880999999999992
Na12H28Ru4,2.5681000000000003
Na6In4As6O24,2.2648
Na24In8As16,0.981399999999999
Na24In8P16,1.3087
Na24In8Sb16,0.6322000000000001
Na12Li12Rh8F48,1.9933
Na3Mn2Sb1O6,0.8500000000000001
Na6Mn10Ge12O40,0.3931
Na12Mn4O16,1.846099999999999
Na12Mo8N20,1.8184
Na6Mo2Cl12,1.7232
Na12Mo4N12,1.4075
Na6Ni4Sb2O12,2.2487999999999992
Na6Ni2F12,0.636
Na6P2,0.4033
Na12P44,1.623899999999999
Na6P2S6O2,2.8392
Na6P2S8,2.291899999999999
Na3P1Se4,1.116899999999999
Na6Sb2,0.3946
Na6Sb6As4O28,1.8894
Na6Sb6P4O28,2.1435
Na6Sb2O8,2.1351
Na12Sb4P8O36,2.7687
Na12Sb4S12,2.3949
Na12Sb4Se12,1.9982
Na3Sb1Se4,0.9870999999999992
Na24Si8Se32,1.809699999999999
Na12Si4Te12,1.9397
Na6Sr6Al2P8,1.1229
Na6Sr6Ga2As8,0.4377
Na6Sr6Ga2P8,0.746699999999999
Na6Sr6Ga2Sb8,0.3066
Na6Ti2F12,0.154399999999999
Na6Ti2F16,1.2639
Na6V4P6O24,1.9166
Na12V12Cr8O48,2.3608
Na12V4P32O92,2.4538
Na24V8S32,1.4686
Na4Ni5O10,0.517199999999999
Na8Ca4Si2As8,0.631899999999999
Na8Ca4Si2P8,1.0094
Na8Cd4Si6O20,2.750499999999999
Na16Cd12Se20,1.0243
Na4Cd1P2,0.739499999999999
Na4Co9Mo12O48,0.6292999999999991
Na8Co2O6,1.1481
Na32Co8O32,1.2643
Na32Cu16S24,2.0854
Na8Fe2O8,1.763199999999999
Na16Ga8S20,2.885
Na8Ge4Se10,1.6797
Na8Ge4Te10,1.0023
Na8Ge2O8,2.8173
Na32Ge8Se32,1.7906
Na8H12Ru2,2.0349
Na4I2O1,2.2131
Na4Mg1Ge2Se6,1.822099999999999
Na4Mg1Si2Se6,2.7632000000000003
Na16Mo4O20,2.9246
Na16Mo4S12O56,2.7865
Na16Se4O20,1.3349
Na32Si16Te40,1.9301
Na16Si4Se16,2.5923
Na4Sn1Ge2S6,1.8668
Na8Sn6S16,1.650599999999999
Na8Sn2O6,1.8842
Na8Sn2O8,2.0838
Na8Sn2S8,2.078
Na8Sn2Se8,1.4647
Na16Sn4Te16,1.0196
Na8Sr4Si2As8,0.5886
Na8Sr4Si2P8,0.9527
Na8Sr4Ti2As8,1.208899999999999
Na8Sr4Ti2P8,1.3214
Na8Te2O10,1.9814999999999992
Na4Ti5O12,2.4744
Na40Ti10P20O90,2.8528
Na32Ti8Se32,1.6617000000000002
Na8V2O8,1.067199999999999
Na32V8P16O72,1.766599999999999
Na32V8S24O104,2.6285
Na20In8Te24,1.003699999999999
Na10Ag2Ge4S14,1.758199999999999
Na10Ag2Ge4Se14,1.1633
Na10Al6H28,2.9039
Na40Al8O32,2.6242
Na20Cu4H8O16,1.4867
Na5Cu1S1O2,1.5205000000000002
Na40Fe8O32,2.1683
Na40Ga8O32,2.4236
Na20Ge4As12,0.5043
Na20Ge4P12,1.079699999999999
Na5I1O6,1.8834
Na40In8O32,1.890699999999999
Na10In2S8,2.0219
Na40In8Te32,1.6777000000000002
Na10Li2Mo18O60,2.9755000000000003
Na10Li6Ti4S16,2.2797
Na10Nb2O10,2.6375
Na40Ni8O32,1.8963
Na20Si4As12,1.1475
Na20Si4P12,1.325099999999999
Na20Sn4As12,0.4045
Na20Sn4P12,1.3674
Na40Sn8Sb24,0.6311
Na10Sr2Nb2As8,1.1672999999999991
Na10Sr2Nb2P8,1.3189
Na12B36Se34,2.1085
Na6Cd7S10,1.0715
Na24Ga4As12,0.347699999999999
Na24Ga4P12,0.875899999999999
Na12Ge4S14,2.4264
Na12Ge4Se14,1.5871
Na6Mn1Cl8,2.5584
Na12Mn2S8,1.400299999999999
Na12Mn2Se8,1.133299999999999
Na6Nb8P5O35,0.038199999999999
Na6S2O9,2.9814
Na12Si4Se14,2.1551
Na12Zn2O8,1.533599999999999
Na12Zn2S8,2.1581
Na12Zn2Se8,1.6667
Na14Al4Sb10,0.308799999999999
Na14Al6O16,2.7979000000000003
Na21As33O93,2.1627
Na14In6Se16,1.430499999999999
Na16Co2O12,0.9516999999999992
Na32Fe8O28,2.109099999999999
Na32Ga8O28,2.4378
Na16Nb4Cu8S42,1.2382
Na16Sn2Sb8,0.2672
Na16Ti2As8,1.0363
Na18Fe6P16O58,2.4659
Na2Ag6O4,0.6596000000000001
Na4Ag12S8,0.9312
Na2Ag2F8,1.546399999999998
Na4Ag4O4,1.2098
Na1Ag1O2,0.5911000000000001
Na4Ag4Te20O56,0.877899999999999
Na2Al2P4S12,2.6538
Na4Al12Ni4Cl48,1.4245
Na2Al2B28,1.584799999999999
Na8Al8Se16,2.7291
Na2Al2Te4,1.2875
Na8As8,0.5734
Na2As6H4O18,2.6467
Na6As6O18,2.8628
Na4As4S8,1.3457