composition,band_gap
Na2U1F8,2.5956
Na2U1I6,0.3792
Na4U2O8,1.866
Na8U4P8O36,2.2471
Na4U2Te2O14,1.880799999999999
Na4W4O14,2.3428
Na2W4O13,1.808499999999999
Na12Au4O8,1.9715
Na12Au4O12,1.7917
Na6Au2S4,2.3085
Na12Bi4O12,2.8428
Na6Bi2O8,0.9732
Na6Ca4Bi2O12,1.5495
Na3Ce1F7,2.6973000000000003
Na3Gd1I6,1.549599999999999
Na6H4Os2O12,0.4493
Na12H28Os4,2.6014
Na36In12Bi24,0.1083
Na6Nd28Ru12O72,0.006
Na6Np2H4O12,1.4886
Na12Os4N8,0.6775000000000001
Na9Os3O15,0.096699999999999
Na12Re8N20,0.6341999999999991
Na9Re3O15,2.4306
Na24Ta8S32,2.5894
Na12Tl4O8,1.8471
Na6U12Al2F60,0.251099999999999
Na6U12Ti2F60,0.026699999999999
Na6U2O8,0.1241
Na12W8N20,2.240199999999999
Na12W12Cl52,0.919
Na12W4N12,1.845899999999999
Na16Ce4As16O56,1.5424
Na4Eu1Ge2Se6,0.387799999999999
Na4Eu1Si2Se6,0.9075999999999992
Na4Eu1Si2Te6,0.525799999999999
Na4Ge2Pb1S6,2.0553
Na4Hg1P2,0.036499999999999
Na4Ir1O4,0.4312
Na4La31Co5I60,0.012599999999999
Na4Np1O5,0.6496000000000001
Na8Pb2O8,1.2998
Na8Pu2H14O18,0.8335
Na8Re2N6,2.4384
Na4Si2Pb1Se6,2.0895
Na16U4C12O44,2.157
Na8U2Cr6O28,2.0333
Na4U1O5,2.1446
Na10Au2Se24,1.0748
Na5Bi1O5,0.8517999999999991
Na10Eu2Ta2As8,0.249
Na20Hf4As12,0.988699999999999
Na5Np1O6,1.4031
Na5Re1O6,2.247999999999999
Na10Sr2Ta2P8,1.3769
Na10Ta2O10,2.5380000000000003
Na40Tl8O32,1.322
Na20Tl4Sn12,0.0514
Na6P4Pb3S16,2.3264
Na12P8W2,1.2626
Na12Pb2O10,1.0116
Na24U20V8O92,1.8105
Na12W12Se4O50,2.7351
Na12W2N8,1.2474
Na7W9O27,1.0388
Na9Sm1Ge4Se12,1.710799999999999
Na9Sm1Si4Se12,2.399899999999999
Na1Ac1Te2,0.603399999999999
Na2Au2I8O24,1.9991
Na2Au2S8O28,1.789499999999999
Na2Au2S4O16,1.753
Na16Au16Cl64,1.6058
Na2Au2F8,2.1333
Na1Au1O2,1.158999999999999
Na16Au16S16,2.304699999999999
Na4Au4Se8,0.9131
Na1Bi1Mo2O8,2.8545
Na4Bi8Au4O20,0.8399000000000001
Na1Bi3Br2O4,2.2208
Na1Bi3Cl2O4,2.3702
Na1Bi3I2O4,1.8933
Na1Bi1F6,2.7315
Na2Bi2O4,1.135
Na2Bi2O6,1.096399999999999
Na1Bi1S2,1.446899999999999
Na1Bi1Se2,1.092299999999999
Na1Bi1Te2,1.065299999999999
Na4Bi4Te4O20,2.3709
Na2Ce2C4O12,0.283999999999999
Na4Ce4Ga16S32,0.231599999999999
Na4Ce4P8Se24,0.141399999999999
Na1Dy1Pd6O8,0.041999999999999
Na1Dy1S2,2.285599999999999
Na1Dy1Se2,1.8635
Na2Er2P4S12,2.5452
Na1Er1Cu2F8,0.7312000000000001
Na1Er1S2,2.324499999999999
Na1Er1Se2,1.9258
Na3Eu3F12,0.374
Na2Fe4Pb2F18,1.198
Na1Gd1Cu2F8,1.0142
Na1Gd1S2,1.762
Na1Gd1Se2,1.3585
Na8Ge8Au24,0.0512
Na2Hf4Cu2Se10,0.4817
Na4Hf4Cu4Se12,0.3845
Na3Hg6I3O6,1.388
Na2Hg2P2O8,1.4524
Na1Ho1Pd6O8,0.0424
Na1Ho1S2,2.3055
Na1Ho1Se2,1.8867
Na4La4Ga16S32,2.2582
Na4La4Ga16Se32,1.7311
Na2La4Os2O12,0.518699999999999
Na2La4Ru2O12,0.4775
Na4La16I28N8,2.8475
Na1La6Os1I12,0.340899999999999
Na2La2S4,2.191
Na1La1Se2,2.2767
Na1Li2Bi1,0.6303000000000001
Na1Lu1S2,2.399299999999999
Na1Nb4Bi5O18,2.7554
Na4Nd4Ga16S32,2.1699
Na4Nd4Ga16Se32,1.5138
Na2Nd4Os2O12,0.543
Na4Nd16I28N8,2.7311
Na1Nd1S2,2.2045
Na1Nd1Se2,1.8121
Na2Np2C2O10,0.0376
Na1Pa1O3,2.952
Na16Pb16,0.1566
Na2Pb4I2O12,2.5426
Na2Pr2C4O12,0.0003
Na2Pr4Ru2O12,0.4715
Na4Pr16I28N8,2.7186999999999992
Na1Pr1S2,2.1807
Na1Pr1Se2,1.7927
Na4Pr4Te8,1.059699999999999
Na4Pt8Se12,0.9897
Na4Sm4P8S24,2.793
Na1Sm1Cu2F8,0.7743
Na1Sm1S2,2.2312
Na1Sm1Se2,1.8016
Na1Sm1Te2,1.1738
Na2Sr6Bi2O12,1.7087999999999992
Na4Ta4Cl24,2.9288
Na1Ta1N2,1.276499999999999
Na4Ta4O12,2.6172
Na1Tb1Pd6O8,0.020699999999999
Na1Tb1S2,2.279099999999999
Na1Tb1Se2,1.839
Na1Tl2Mo1F6,2.9199
Na1Tl2Rh1F6,1.7848000000000002
Na2Tl2O2,0.975499999999999
Na1Tl1O2,0.6208
Na1Tm1Pd6O8,0.0221
Na1Tm1S2,2.3614
Na4U4B4O20,1.9304
Na1U1F6,0.9529
Na4U4N12O44,2.168999999999999
Na4U4O12,0.431
Na4U4P12O44,2.4628
Na4U4V4O24,1.9662
Na1V2Bi3O10,2.8908
Na2V6Pb8O24,2.8762
Na4V16Bi52O120,2.8099
Na2W12C2Cl36,0.1048
Na2W12N2Cl36,0.5959000000000001
Nb10Pb14O39,1.751799999999999
Nb4Pb4Se8O30,2.662099999999999
Nb8Tl12Cu4Se48,1.0734
Nb4Tl8S22,1.2121
Nb4Tl8Se22,0.9315
Nb4Tl2P2S20,1.3449
Nb3P6W1O24,1.0427
Nb6Tl4Br18,1.0296
Nb6Tl4Cl18,1.023499999999999
Nb12Tl12O40,0.271399999999999
Nb16Pb12O48F8,2.798499999999999
Nb8Pb6O26,2.2052
Nb24Tl4Cl60,0.9461
Nb8Bi8Te16O64,2.352
Nb4Bi16Br4O32,1.4811
Nb4Bi16Cl4O32,1.5312
Nb4Bi4O16,2.938799999999999
Nb6Tl12P6O36,2.9021999999999992
Nb1Tl3S4,2.457999999999999
Nb1Tl3Se4,2.1041
Nb1Tl1Br4O1,1.2501
Nb8Tl8Cl32O8,2.3042
Nb2Tl2Cl12,2.2092
Nb8Tl8O24,0.955
Nb2Tl2Te2O12,2.2669
Nb4Tl4V8O32,2.452
Nb2Tl2W2O12,2.931599999999999
Nd2Er6S12,1.024799999999999
Nd2Ho6S12,1.0278
Nd2Lu6S12,1.034799999999999
Nd2Tm6S12,1.0206
Nd2Y6S12,1.0532
Nd2Zn6As6,0.127
Nd2Zn6P6,0.0524
Nd20S38,0.199999999999999
Nd20Se38,0.5381
Nd2As6Xe5F46,2.7183
Nd8Au20F84,1.6499
Nd4Eu2S8,0.3825
Nd4Eu2Se8,0.490699999999999
Nd4Fe2Sb2O14,1.3969
Nd8Hf4S20,1.0171
Nd4Hg2O8,2.2099
Nd4Mg2Pt2O12,2.0683
Nd4Mn2Ni2O12,1.457199999999999
Nd6Mo12O45,2.5839
Nd8Mo4O24,2.6647
Nd4Nb4S14O60,0.1134
Nd4Ni2Pt2O12,1.8452
Nd4P4Au2O2,0.0323
Nd4Pd4O10,1.080899999999999
Nd4Pt4O14,1.0795
Nd8S12,0.759599999999999
Nd2S1O2,2.8667
Nd16Se24,1.4781
Nd2Se1O2,2.151099999999999
Nd4Si4Pb2S16,2.408899999999999
Nd4Si4Pb2Se16,1.819
Nd8Si4S20,2.4368
Nd8Si4Se4O16,2.6009
Nd8Si4Te4O16,2.0477
Nd4Sn4O14,2.6738
Nd2Te1O2,1.271499999999999
Nd8Te4O24,2.9846
Nd2Te1S2,1.5871
Nd8Th4S20,1.405199999999999
Nd8Ti8O28,2.9631
Nd2Ti2S2O5,0.825299999999999
Nd4Ti6Bi4O24,2.2573
Nd8U4Se20,0.034
Nd4V2Fe2O12,0.7975000000000001
Nd8Zr4S20,1.0438
Nd8Zr4Se20,0.7389000000000001
Nd6Bi8Au6,0.3422
Nd6Cu6Bi8,0.357599999999999
Nd6Cu6Sb8,0.1983
Nd6Cu2Ge2S14,1.675799999999999
Nd6Cu2Ge2Se14,1.222799999999999
Nd6Cu2Si2S14,1.6357
Nd6Cu2Si2Se14,1.341099999999999
Nd6Cu2Sn2S14,1.7587000000000002
Nd6Cu2Sn2Se14,1.1932
Nd6Fe2O12,2.080899999999999
Nd12In4S24,0.9578
Nd12Nb4O28,2.873
Nd6Pb6I26O80,2.8386
Nd6Re4O18,0.163
Nd12S12N4,1.1935
Nd6Sb2O14,2.5869
Nd12Sc8Fe12O48,2.394
Nd12Se12N4,0.941299999999999
Nd6Si4S16Br2,2.664
Nd6Si4S16I2,2.547999999999999
Nd6Si2Ag2S14,1.770899999999999
Nd6Si2Ag2Se14,1.4465
Nd24Si8S48Cl8,2.6289
Nd3U2O10,0.1734
Nd16Au8O36,2.0717
Nd16Cd4Ni4,0.0337
Nd16Cd4Pd4,0.098899999999999
Nd16Cd4Pt4,0.0353
Nd16Ga4Sb4S36,2.184599999999999
Nd32In8Sb8S72,2.1557
Nd16Re8O44,0.4487
Nd16Rh24Pb76,0.021199999999999
Nd8Se6N4,1.370999999999999
Nd4Se3O4,1.323299999999999
Nd16Si8S12O28,2.593499999999999
Nd16Te12N8,0.9142
Nd6Cd1Ge2S14,2.048499999999999
Nd6Cd1Si2S14,1.8684
Nd6Ge3S14,1.277899999999999
Nd6Ge3Se14,1.165
Nd6Mg1Ge2S14,2.073
Nd6Mn1Si2S14,1.033499999999999
Nd24S16Br4N12,1.399
Nd12Si8S34,2.5245
Nd32Sb8S60,1.8313
Nd18Al10S42,2.3989000000000003
Nd18Al10Se42,1.775399999999999
Nd18Ga10S42,1.665299999999999
Nd2Al2Ge2,0.2106
Nd1Al1H6,2.0357
Nd4As4Se4,0.783199999999999
Nd4As4Se4,0.030899999999999
Nd6B6N12,2.167999999999999
Nd1Bi2Br1O4,1.219899999999999
Nd1Bi2Cl1O4,1.1973999999999991
Nd1Bi2I1O4,1.265399999999999
Nd2Bi2O8,0.579699999999999
Nd1Bi1Pd1,0.1051
Nd2Br6,2.9221
Nd4Cr4Ge4O20,2.5312
Nd4Cr4O12,2.54
Nd2Cr2O8,0.2958
Nd2Cr2Te2O12,2.7114000000000003
Nd8Cu8Mo16O64,1.9650999999999992
Nd1Cu1O2,2.411499999999999
Nd4Cu4O12,0.122999999999999
Nd4Cu4S8,1.0776
Nd4Cu4Se8,0.7529
Nd4Fe4O12,1.7349
Nd8H8O8,2.0008
Nd2H2Se2,1.6526
Nd2I6,2.0128
Nd4In8Cl20,2.8061
Nd10In20Pd10,0.0349
Nd1In1Cu4,0.0045
Nd2Lu2S6,0.805199999999999
Nd2Lu2Se6,0.4956
Nd4Mn8O20,1.1794
Nd4Mn4O12,1.898
Nd4Mo4Br4O16,2.0897
Nd8Mo8Cl8O32,2.6074
Nd1Ni1Bi1,0.511899999999999
Nd8P8S8,0.327899999999999
Nd8P8S32,2.271199999999999
Nd2Pa2O8,2.7599
Nd4Rh4O12,0.6487
Nd4S8,0.3379
Nd4S4Br4,2.6382
Nd2S2F2,1.2363
Nd8S8I8,2.0315
Nd8S8O8,1.6345
Nd4Sb4O16,2.240399999999999
Nd4Sc4S12,1.859299999999999
Nd2Se2F2,0.9158
Nd4Se4O4,0.337099999999999
Nd2Te2Cl2,0.4133
Nd4Tl4P8S28,2.4404
Nd1Tl1S2,1.6456
Nd1Tl1Se2,1.2255
Nd1Tl1Te2,0.7119000000000001
Nd4V8I4O36,2.5118
Nd4V4O12,1.034099999999999
Nd2Zn2As2O2,0.8621999999999991
Nd2Zn2P2O2,1.231799999999999
Nd2Zn2Sb2O2,0.1854
Ni4Bi8O24,0.133
Ni4Pt12O24,0.374
Ni4Hg4O2F12,0.996
Ni18Te10Pb12O60,1.9839
Ni4Bi4As4O20,2.8781
Ni1Pb1F6,2.2615
Ni1Pt1F6,2.0795
Ni2W2O8,2.8991
Np1Fe4P12,0.479799999999999
Np2P8S24,0.25
Np8H48S4O56,0.500599999999999
Np8S4O40,1.1161
Np8S4O36,0.036499999999999
Np4Tc8O46,0.409699999999999
Np4B12O32,0.5495
Np2Cl6,0.047299999999999
Np2Cl8,1.1679
Np4F24,1.1546
Np4H24Cl8O52,0.3708
Np4I8O36,0.363
Np4I4O20,0.0864
Np2Se2O10,0.1876
Os6O12F24,1.9011999999999991
Os1S2Cl12,0.032699999999999
Os1Se2Br12,0.075699999999999
Os8O12F28,0.5979999999999991
Os2C6I4O6,1.795599999999999
Os4O12F8,2.3145
Os4O4F20,0.8055000000000001
Os4Se4S12Cl16,1.4276
P10Au7I1,0.4964
P112Pb20I8,1.1116
P8Ir4,0.6331
P16Ir8Cl8F48,1.0451
P4Os2,0.8159000000000001
P4Pb2Xe6F36,2.4778
P8Pb12S32,2.312599999999999
P8Pd4Pb4O28,0.3293
P8Pt4,1.018599999999999
P8Pt4O28,1.5197
P4W2O16,2.4666
P6W4O24,2.0967
P12Ir4,0.084900000000001
P6Ir2O18,2.244099999999999
P24Rh8W16O120,1.552299999999999
P24Ru8W16O120,0.1199
P12Os3,1.3036
P6Pb3Xe11F58,2.4318
P28Pb4,0.8769999999999991
P4Au4Cl16,2.5700000000000003
P4Au4Cl32,1.3333
P2Au2O8,1.706
P2Au2S8,1.3165
P4Ir4S4,1.8489
P4Os4S4,0.944
P4Pb8I4O16,2.923
P4Pb4S12,2.3061
P4Pb4Se12,1.664499999999999
P2W8Cl22,0.6111
P1W6Cl17,0.4337
P2W2O8F2,2.964
P4W4O20,1.8574
Pa1Ag1O3,0.915
Pa2Br6O2,1.749
Pa2Br8,0.182199999999999
Pa4Br20,1.9646
Pa2Cl8,0.155399999999999
Pa2Cl10,2.4189
Pa2In2O8,2.1708
Pa1Tl1O3,2.6427
Pb4I8O24,2.6939
Pb26Br12O20,2.1245
Pb26Cl12O20,1.8938
Pb4Br2O2F2,2.3331
Pb4Cl2O2F2,2.568999999999999
Pb4I2O2F2,2.248199999999999
Pb8O4F8,2.851099999999999
Pb12Br8O8,2.3882
Pb12Cl8O8,2.4293
Pb12I8O8,2.2335
Pb12N8O32,2.111399999999999
Pb12O16,1.133
Pb6Se4Br4O12,2.832899999999999
Pb6Se4I4O12,2.633
Pb6Se2O10,2.4633000000000003
Pb20S4O32,2.703199999999999
Pb4Br8,2.657899999999999
Pb2Br2F2,2.617
Pb4C4N8,1.7030999999999992
Pb4F12,1.9078
Pb1F4,1.9022
Pb2I4,2.4455
Pb2O2,1.4635999999999991
Pb4S4,0.466699999999999
Pb2S4,0.083
Pb1Se1,0.425699999999999
Pb4W4O16,2.9475
Pd2Au4F16,0.7023
Pd2Pb4Cl12,1.5378999999999992
Pd2Pb4F12,1.1328
Pd2Pb2F8,1.099399999999999
Pm4S6,2.4211
Pm8Se12,0.4855
Pm2Br6,2.8814
Pm2I6,2.0525
Pm2Pa2O8,2.780699999999999
Pm4S8,0.4328
Pm1Tl1Te2,0.0662
Pr2Cd6P6,0.5144000000000001
Pr2Er6S12,1.014399999999999
Pr2Ho6S12,1.021
Pr2Lu6S12,1.019299999999999
Pr2Tm6S12,1.0193
Pr2Y6S12,1.043799999999999
Pr2Zn6As6,0.0883
Pr2Zn6P6,0.028599999999999
Pr40S56O4,1.8114999999999992
Pr20S38,0.1936
Pr20Se38,0.556
Pr12Ge5S28,0.9346999999999992
Pr8Au20F84,1.6510999999999991
Pr4Br10,0.281699999999999
Pr4Cu2Ge4O16,0.6574
Pr4Eu2S8,0.472799999999999
Pr4Eu2Se8,0.5078
Pr4Fe2Cu2O12,0.3847
Pr4Fe2Sb2O14,1.7804000000000002
Pr8Hf4S20,1.0277
Pr4I10,0.1283
Pr4Mg2Pt2O12,2.0522
Pr2Mn2Se2O3,0.556499999999999
Pr4Mn2Ni2O12,1.6564
Pr8Mo4O24,2.327099999999999
Pr4Nb4S14O60,0.127699999999999
Pr4Ni2Pt2O12,1.8264
Pr8S12,0.7775000000000001
Pr2S1O2,2.859999999999999
Pr16Se24,1.475099999999999
Pr2Se1O2,2.1691
Pr4Si4Pb2S16,2.4126
Pr4Si4Pb2Se16,1.8305
Pr8Si4Te4O16,2.084399999999999
Pr4Sn4O14,2.6358
Pr8Ta12Se8O32,1.0019
Pr16Te24,0.9258999999999992
Pr2Te1O2,1.655599999999999
Pr8Te4O24,2.933099999999999
Pr8Th4S20,1.3807
Pr8Ti8O28,2.972899999999999
Pr2Ti2S2O5,0.841499999999999
Pr8U4Se20,0.032099999999999
Pr4V2Fe2O12,1.113499999999999
Pr8Zr4S20,1.0437
Pr8Zr4Se20,0.7200999999999991
Pr6Ag2Ge2S14,1.8295
Pr6As2S10Cl4,2.161099999999999
Pr6Bi8Au6,0.337099999999999
Pr6C2Br10,0.593399999999999
Pr12C4Cl20,2.425499999999999
Pr6Cu6Sb8,0.1792
Pr6Cu2Ge2S14,1.660299999999999
Pr6Cu2Ge2Se14,1.2189
Pr6Cu2Si2S14,1.2982
Pr6Cu2Si2Se14,1.363299999999999
Pr6Cu2Sn2S14,1.7779999999999991
Pr6Cu2Sn2Se14,1.216899999999999
Pr12Ga20O48,2.9055
Pr12In4Se24,0.6879000000000001
Pr12Mo4O28,0.016
Pr6Os2I6,0.172499999999999
Pr6Os2O14,0.1244
Pr6Re4O18,0.1243
Pr12Re4O32,1.8179999999999992
Pr6Ru2Br6,0.1713
Pr12S12N4,1.1501
Pr6Sb8Au6,0.506
Pr6Sb2O14,2.7314
Pr12Sc8Fe12O48,2.384299999999999
Pr12Se12N4,0.976
Pr6Si4S16Br2,2.6881
Pr6Si4S16Cl2,2.7409
Pr6Si4S16I2,2.5715
Pr6Si12N22,2.9904
Pr6Si2Ag2S14,1.7613
Pr6Si2Ag2Se14,1.4423
Pr18Si6Se12N18,2.09
Pr16As8S36,1.8339999999999992
Pr16Cd4Ni4,0.0174
Pr16Cd4Pd4,0.0564
Pr16Ga4Sb4S36,2.1638
Pr32In8Sb8S72,2.1642
Pr8Mg10Ge12,0.1293
Pr16S12N8,1.5093
Pr8Se6N4,1.3742
Pr4Se3O4,1.315
Pr16Si8S12O28,2.5994
Pr16Si8Se12O28,2.3921
Pr16Te12N8,0.9055
Pr20C8Br32,0.7229000000000001
Pr5Ru2O12,0.192199999999999
Pr6Cd1Ge2S14,2.0313
Pr6Cd1Si2S14,1.8397
Pr6Co1Br10,0.0983
Pr6Ge3S14,1.3322
Pr6Ge3Se14,1.205799999999999
Pr6Ir1Cl11,0.6397
Pr6Mg1Ge2S14,2.022199999999999
Pr6Mn1Ge2S14,0.5528000000000001
Pr6Mn1Si2S14,1.098899999999999
Pr6Os1Br10,0.1947
Pr6Ru1Br10,0.2138
Pr12S6O4F16,2.6461
Pr24S16Br4N12,1.380199999999999
Pr12Si8S34,2.5448
Pr14C6Br20,0.102399999999999
Pr14C6I20,0.012199999999999
Pr7Co1I12,0.0192
Pr7Fe1I12,0.185499999999999
Pr32Sb8S60,1.8139999999999992
Pr18Al10S42,2.2704
Pr18Al10Se42,1.788399999999999
Pr18Ga10S42,1.6447
Pr1Al1H6,2.0349
Pr4As4S4,0.0095
Pr4As4Se4,0.1006
Pr6B6N12,2.1062
Pr4B4S12,2.4441
Pr1Bi2Br1O4,1.2269
Pr1Bi2Cl1O4,1.1244
Pr1Bi2I1O4,1.2196999999999991
Pr4Bi4O16,0.9319
Pr4Cr4O12,2.0419
Pr2Cr2O8,0.297199999999999
Pr2Cr2Te2O12,2.734099999999999
Pr1Cu1O2,2.3609
Pr4Cu4S8,1.0678
Pr4Cu4Se8,0.745499999999999
Pr8Er8S24,0.6393
Pr4Eu4Cu4S12,0.1145
Pr4Fe4Ge8O28,2.7903
Pr4Fe4O12,1.0793
Pr1H3,0.1572
Pr2H2Se2,1.9162
Pr2I6,1.9493
Pr2Lu2S6,0.784999999999999
Pr2Lu2Se6,0.4935
Pr2Mn2Ge2O10,1.9606
Pr4Mn4O12,0.057
Pr4Mo4Br4O16,2.1545
Pr1Ni1Bi1,0.333799999999999
Pr8P8S8,0.2892
Pr8P8S32,2.2955
Pr2Pa2O8,2.7176
Pr4Pt4F28,2.4352
Pr2Rh2,0.1755
Pr4Rh4O12,0.6013000000000001
Pr4S8,0.346299999999999
Pr4S4Br4,2.842399999999999
Pr2S2F2,1.2541
Pr8S8I8,2.0481
Pr4S4O4,1.409
Pr4Sb4O16,2.2095
Pr4Sc4S12,1.8377
Pr8Si8P24,0.2568
Pr4Ta4Ti4O24,2.9822
Pr4Te4As4,0.099
Pr2Te2Cl2,0.421
Pr4Tl4P8Se24,1.8204999999999991
Pr4Tl4P8S28,2.4484999999999992
Pr1Tl1Se2,1.2363
Pr1Tl1Te2,0.7130000000000001
Pr8Tm8S24,0.648099999999999
Pr4V8I4O36,2.5277000000000003
Pr4V4O12,1.301599999999999
Pr2Zn2P2O2,1.1635
Pr2Zn2Sb2O2,0.1208
Pt2S4Cl16,1.9198
Pt4S8O32,0.000399999999999
Pt12I32,0.8003999999999991
Pt12Br36,0.8929
Pt6Cl12,1.7917
Pt12Cl36,0.9465
Pt2F8,1.295399999999999
Pt4I8,1.2328
Pt4I12,0.3481
Pt8I32,0.7298
Pt2O4,0.6463999999999991
Pt1Pb1F6,1.971099999999999
Pt2S2,0.3848
Pt1S2,1.5467
Pt1Se2,0.6193000000000001
Pu8I4O40,0.054699999999999
Pu4Si2O20,0.7104
Pu4H32S8O48,0.1488
Pu4Te4S4O28,0.298799999999999
Rb2W6O18,0.647799999999999
Rb30W14N38,1.482199999999999
Rb8Re12S24,1.426899999999999
Rb8Re12Se24,1.035899999999999
Rb4Ag2Au6I16,0.746
Rb2Ag1Bi1Cl6,2.06
Rb4As4Pt2,0.4342
Rb4Bi2I10O30,2.9609
Rb16Bi32O56,2.5644
Rb4Bi8Se14,0.7279999999999991
Rb4Ce2N12O36,1.8696
Rb8Ce4Br20,0.319799999999999
Rb8Ce4Cl20,0.1385
Rb4Ce2O6,2.41
Rb2Cu1Bi1Cl6,1.0756
Rb8Eu4Cl20,0.0114
Rb8Eu4F20,0.063
Rb8Eu4F20,0.076899999999999
Rb8Gd4Cl20,2.4944
Rb2Hf2O5,1.9412
Rb16Hf8S32,2.2537000000000003
Rb4Hg2B18Se18,1.9217
Rb2Hg2Pd1Br8,1.5753
Rb2Hg2Pd1Cl8,1.8952
Rb4Hg6Ge4S16,2.0942
Rb4Hg6Se8,1.0869
Rb8Hg12Te16,1.0898
Rb2Hg1F4,1.9382
Rb2Hg1O2,2.03
Rb16Hg8P8Se40,1.6232000000000002
Rb2In1Bi1Cl6,1.691599999999999
Rb2La10Co2I17,0.0464
Rb8La4I20,2.7991
Rb4La2Nb10O30,1.8633
Rb2Li14Pb3O14,1.9342
Rb8Li4Ta4S16,2.8199
Rb2Li1Tl1Br6,0.5529000000000001
Rb2Na1Ce1F6,0.280199999999999
Rb2Na1Ir1F6,2.3345
Rb2Na1Tl1Br6,1.0102
Rb2Np1O4,0.271799999999999
Rb4P4Pt2,0.9318
Rb4Pb4O6,2.0393
Rb4Pb8O14,0.9863
Rb2Pb1Cl6,1.2605
Rb8Pb4O8,1.8864
Rb8Pb4O12,1.2741
Rb2Pt3S4,1.4542000000000002
Rb2Pt1C2,1.136199999999999
Rb2Pt1Cl6,1.9459
Rb2Pt1F6,2.6581
Rb2Pt1I6,0.520999999999999
Rb2Pt1S2,1.2521
Rb2Pt1Se2,1.0034
Rb8Pu4Cl20,0.154399999999999
Rb4Pu2Cl12,0.1311
Rb2Re1F6,1.7687
Rb8Sb4Au4S16,1.5876
Rb4Sn4Hg6S16,1.769499999999999
Rb2Sn1Hg1Te4,0.6905
Rb4Ta2Ag2S8,2.5449
Rb4Ta2Cu2S8,2.3398
Rb4Ta2Cu2Se8,1.954899999999999
Rb8Tb40C16Br76,0.1554
Rb4Te2W6O24,2.9664
Rb2Te2Pt1,0.9276
Rb8Th4P12Se36,1.3858
Rb8Th28Se60,1.3442999999999992
Rb2Ti1W3O12,2.8232
Rb2Tl1Ag1F6,0.5523
Rb2Tl1As1F6,2.7163
Rb2Tl1In1Cl6,2.3962
Rb2Tl1Rh1F6,1.9393
Rb2Tl1Sb1Cl6,1.955099999999999
Rb16U8Mo16O80,2.3085
Rb8U4Si24O60,0.569199999999999
Rb4U2Si8O24,2.4493
Rb4U4O14,1.6672
Rb16U16W8O80,1.9222
Rb2U3I4O20,1.9066
Rb2U3Te2O14,1.851299999999999
Rb8U12P24O100,2.117099999999999
Rb8U4Br20,0.504699999999999
Rb8U4Cl20,0.105799999999999
Rb8U4Cr8O40,2.125499999999999
Rb8U4F28,1.3551
Rb8U4F28,0.472499999999999
Rb2U1O4,1.8996
Rb4W4O14,2.4023
Rb8W4S16,1.9936
Rb8W4Se16,1.3613
Rb6Au6Cl16,0.8124
Rb3Au1O1,0.197899999999999
Rb12Bi8Br36,2.818
Rb12Bi8I36,2.4754
Rb12Bi4Se12,1.7768000000000002
Rb12Ce4P8Se32,0.2138
Rb6Cu4Bi10S20,0.8123
Rb12Er12P16S64,2.2842
Rb6Er14S24,1.94
Rb6Ge8Au2,0.9115
Rb6Li2Pb8,0.6894
Rb12Lu4Cl24,1.3029
Rb12Lu4O12,2.5103
Rb12Na4Pb4O16,1.6632
Rb6Na2Re4O18,1.7859
Rb12Np4H16O28,1.511099999999999
Rb6Np2H16O18,1.6067
Rb6Os4Br18,0.4873
Rb6Pr6P8S32,2.324899999999999
Rb12Pu4H16O28,1.2382
Rb3Sb2Au3,1.222
Rb6Sm2P4S16,2.1861
Rb6Sn8Au2,0.581299999999999
Rb12Ta8Ag4Se48,1.423499999999999
Rb6Ta4As2S22,1.8938
Rb12Ta8S44,1.693299999999999
Rb12Ta4S16,2.8993
Rb3Tl1Br6,1.5276
Rb12Tl4Cl24,2.4291
Rb12Tl4O12,1.460799999999999
Rb6Tm4Cu8Br26,1.9122
Rb12U8Ge8O44,0.194599999999999
Rb6U6Ge4O26,0.472
Rb12W8N20,2.0386
Rb8Au12S10,1.6880000000000002
Rb8Hf6S28,1.7241
Rb16Hg20Te52,0.868799999999999
Rb8P4Pb2Se16,1.669
Rb16Pb36,0.391399999999999
Rb32Pb8O24,2.2987
Rb16Pb4O16,1.5892
Rb8Re12S26,1.4373
Rb8Sn42Hg4,0.2126
Rb4Tl1Sb1Cl12,0.919
Rb8U6As4O32,1.9191999999999991
Rb8U2C6O22,2.167799999999999
Rb24W6O30,2.9242
Rb10Au6O4,0.8081
Rb10Re6S14,1.6441
Rb20Ta4Tl8As16,1.5088
Rb20Th4P12S48,2.0715
Rb12Hg2S8,1.595
Rb12Hg2Se8,1.3449
Rb12Ta8S50,1.4868
Rb12U2Mo8O36,2.3665
Rb24U8Cu48S60,0.490799999999999
Rb24U20V8O92,1.7881
Rb7Au5O2,0.626799999999999
Rb14Th4P12Se42,1.0989
Rb7Th6F32,0.9456
Rb32Al4Au12O16,1.4024
Rb8Nd1As4S16,0.0392
Rb1Ac1Te2,0.9157
Rb1Au1,0.369899999999999
Rb1Au1I4O12,2.1073
Rb1Au1S2O8,1.7149
Rb1Au1Se2O8,1.426699999999999
Rb1Au3Se2,1.7326
Rb2Au2Br6,0.7293000000000001
Rb2Au2Br8,1.4772
Rb2Au2Cl8,1.9363
Rb2Au2F8,2.4513
Rb2Au2I6,0.7061000000000001
Rb4Au4O4,1.4283
Rb2Au2O4,1.4611
Rb2Au2S2,1.9946
Rb2Au2Se2,1.7116
Rb4Ba4Ta4S16,2.4747
Rb16Bi16,0.386199999999999
Rb4Bi12Se20,0.984
Rb2Bi8Se14,1.0521
Rb1Bi1F6,2.6387
Rb2Bi2O4,2.1259
Rb1Bi1S2,1.339
Rb1Ce1S2,0.0339
Rb1Ce1Se2,0.0478
Rb4Cr8Bi4O32,2.4169
Rb2Dy4Ag6Te10,1.0526
Rb2Dy4Cu2Se8,0.9249
Rb1Dy1S2,2.3216
Rb2Er4Cu6S10,1.491
Rb2Er4Cu6Se10,1.1477
Rb1Er1S2,2.3521
Rb1Er1Se2,1.9769
Rb2Gd2W4O16,1.2857
Rb4Gd8Cl28,2.6207000000000003
Rb2Gd4Cu2Se8,0.7781
Rb1Gd1S2,1.7435
Rb4Gd4S8O36,0.827499999999999
Rb1Gd1Se2,1.033899999999999
Rb2Gd2Te8,0.032599999999999
Rb4Ge4Bi4S16,1.9729
Rb2Hf2Ag2Te6,0.319399999999999
Rb1Hg5Cl11,2.6342
Rb1Hg1F3,0.6454000000000001
Rb4Hg4Sb4Se12,1.073699999999999
Rb2Hg2Sb2Te6,0.5502
Rb2Ho4Cu6S10,1.4733
Rb1Ho1S2,2.3355
Rb1Ho1Se2,1.958699999999999
Rb1La1S2,2.685699999999999
Rb1La1Se2,2.32
Rb4La4Si4S16,2.7894
Rb1Lu1S2,2.3998
Rb1Lu1Se2,2.0299
Rb2Na4Au2O4,2.1025
Rb8Na40W16N48,1.85
Rb2Nb2W2O12,2.929999999999999
Rb2Nd4Cu2S8,0.9387999999999992
Rb1Nd1S2,2.2617
Rb1Nd1Se2,1.8958
Rb1Nd1Te2,1.299399999999999
Rb2Nd2Te8,0.1721
Rb2Np2N6O22,0.097199999999999
Rb4Os8O36,0.7619
Rb4P4Pb4S16,2.3703
Rb16Pb16,0.5688
Rb2Pb2Br6,2.8211
Rb4Pb4I12,2.4518
Rb2Pb2I2O12,1.3747
Rb1Pr6C2I12,0.1662
Rb1Pr1S2,2.2686
Rb1Pr1Se2,1.8997
Rb2Pr2Te8,0.1932
Rb2Pt4Se6,1.006
Rb4Pu4P8S28,0.2374
Rb2Re6Br20,0.9991
Rb6Re6Cl24,1.0827
Rb8Sb16Au24S40,1.1498
Rb2Sb2W2O12,0.0001
Rb4Si4Bi4S16,2.0549
Rb2Sm4Ag6Se10,1.049599999999999
Rb2Sm4Ag6Te10,1.028499999999999
Rb2Sm4Cu2S8,1.039999999999999
Rb2Sm4Cu2Se8,0.914899999999999
Rb4Sm4Ge4Se16,1.6011000000000002
Rb1Sm1S2,2.2721
Rb1Sm1Se2,1.899
Rb1Sm1Te2,1.316399999999999
Rb2Ta2Cu4Se8,1.7333
Rb4Ta4Cu8Te16,1.198
Rb4Ta12Te8O48,2.8998
Rb2Ta2Cl12,2.8956
Rb2Ta2Ge2S10,0.9222999999999992
Rb16Ta16N32,2.6476
Rb16Ta16P16S96,1.7462
Rb4Ta4V8O32,2.8144
Rb2Tb4Ag6Te10,1.0504
Rb1Tb1S2,2.3079
Rb1Tb1Se2,1.9336
Rb1Tl1S2O8,1.988999999999999
Rb4Tl12O20,0.2713
Rb2Tl2F6,2.0588
Rb4Tl4F16,2.7647
Rb2Tl2O2,1.201699999999999
Rb1Tl1O2,0.8461999999999991
Rb8Tl8S16,1.2046
Rb1Tm1S2,2.368
Rb4U4Cr4O24,1.5963
Rb8U8F40,0.170399999999999
Rb2U2N6O22,2.4146
Rb1U1O3,0.4542
Rb4W12Br28,2.6645
Re1Ag2Cl6,0.8254
Re4Te8Br16,1.9421
Re4Te8Cl16,2.1542
Re4Hg10O20,1.2845
Re8P12Cl96,0.085399999999999
Re2Cl5O4,0.7773
Re8Cl28O12,0.3105
Re4Mo2Se8,1.0564
Re16O56,2.7295
Re8Os4Se16Cl8,1.2869000000000002
Re8P8O44,0.5705
Re8P20,0.485199999999999
Re4P2Cl26,0.832399999999999
Re8S4Cl16O32,2.0921
Re4S4O26,2.3825
Re4Sb8O26,2.8834
Re24Te60,0.6584000000000001
Re12S28Br28,1.3351
Re12S28Cl28,1.686499999999999
Re12Se28Br28,1.3216
Re12Se28Cl28,1.5553
Re6Te14I14,0.846299999999999
Re12Br28,0.3599
Re6Br16Cl2,0.9143
Re12S16Br4,1.6485
Re12S16Cl4,1.6748