composition,band_gap
Ac16S24,2.2962
Ac1Ag1Te2,0.079399999999999
Ac1Cr1O3,2.0031
Ac1Fe1O3,0.9887999999999992
Ac1Ga1O3,2.895900000000001
Ac1Ga1Te2,0.490999999999999
Ac1H3,0.640699999999999
Ac2I6,2.5892
Ac1In1Te2,0.3799
Ac2N2,0.0517
Ac1Tl1Te2,0.6253000000000001
Ag2Au4F16,0.258499999999999
Ag8Bi4O12,0.3872
Ag4Ge2Pb2S8,1.3699
Ag4Hg4Te6O24,0.1606
Ag4Hg2Ge2S8,0.4441
Ag2Hg1I4,1.2219
Ag8Hg4O8,0.410299999999999
Ag4Hg2S2I4,1.2212
Ag4Sn2Hg2S8,0.015699999999999
Ag12Au4Se8,0.023499999999999
Ag12Te8Au4,0.1725
Ag20Bi4O16,1.5002
Ag5Hg4P8Cl5,0.9788
Ag4As4Pb4S12,1.385999999999999
Ag2Au2I8O24,1.257299999999999
Ag2Au2Cl8,0.8406
Ag2Au2F8,1.0268
Ag2Au2O4,0.6522999999999991
Ag4Bi4I16O48,2.4344
Ag2Bi2P4S12,1.183799999999999
Ag2Bi2P4Se12,1.2778
Ag1Bi2F12,0.3971
Ag2Bi6S10,0.5262
Ag2Bi2S2Cl4,1.0752
Ag4Hg8As4O16,0.738599999999999
Ag4Hg8N4O20,0.5517000000000001
Ag4Hg8P4O16,1.1892
Ag2Hg2As2S6,1.2453
Ag4Hg4S4Br4,1.2604
Ag4Hg4S4I4,1.3584
Ag1Pb1F6,0.217999999999999
Ag4W12Br28,2.6891
Al12Bi48Cl48,1.4598
Al8Bi4S16,2.6364
Al8Bi4Se16,2.2404
Al4Ga4Bi4O18,2.7318
Al8Hg12Cl32,2.5631
Al2Hg1S4,2.0244
Al2Hg1Se4,1.4253999999999991
Al2Hg1Te4,1.1108
Al2Os1,0.289899999999999
Al4Pb2S8,2.5904
Al4Pb2Se8,1.9965
Al8Bi4O18,2.800199999999999
Al14Tl6S24,2.7961
Al7Cr1Bi4O18,2.5541
Al32Pb36O84,2.8336
Al8B8Pb8O32,2.940799999999999
Al4Bi4S4Cl16,2.8305
Al4Bi4Se4Cl16,2.542399999999999
Al4Bi4Te4Cl16,2.1634
Al8Hg16Sb8Cl32,1.1967
Al1Re1Ge1,0.1187
Al8Tl8S16,2.1201
Al8Tl8Se16,1.788999999999999
Al1W1O4,2.980299999999999
As8Ir4,0.8155000000000001
As4Os2,0.6646999999999991
As4Pb2Xe6F36,2.5938
As4Pb28Cl8O34,2.0997
As8Pb8O20,2.936
As4Pb16O26,2.0725
As8Pb4O16,2.846199999999999
As2Pb1O6,2.1358
As8Pt4,0.0785
As12Ir4,0.026799999999999
As6Pb10Br2O24,2.9898
As6Pb10Cl2O18,2.6399
As2Au2O8,1.8671
As4Ir4S4,1.863
As4Ir4Se4,1.4699
As4Os4S4,1.1795
As4Os4Se4,1.0029
Au1O2F6,0.1855
Au4O6,0.8689999999999991
Au4S2,1.9091
Au4Se6O20,0.9414
Au4Se8O22,1.4326
Au6F16,0.5426
Au4Br4,1.6885
Au8Br24,0.8891
Au2Br2F12,1.9482
Au4Cl4,1.674399999999999
Au4Cl8,0.897899999999999
Au4Cl12,1.3606
Au6Cl6O6,0.9762
Au6F18,1.5542
Au8F40,0.7042
Au4I4,2.0942
Au4S12O36F12,1.4998
Au4S4Cl20,1.7772
Au4S4Cl28,1.8191
Au8S8O32,1.600699999999999
Au2Se2,0.262799999999999
Au8Se8Br8,0.6302999999999991
Au4Se4Cl28,1.7274
Au4Se4Cl4O12,1.3674
Au4Xe8F68,1.3385
B4Mo2Pb12O24,2.4454
B16Pb16S40,1.7364000000000002
B8Pb16O28,2.454499999999999
B8Pb24S4O48,2.9511000000000003
B6Pb20Br6O26,2.435399999999999
B12Pb24Br4O40,2.8245
B12Pb24Cl4O40,2.9337
B1As5Pb6O20,2.9414
B4Pb28Br12O28,1.9254
B2Sb2Pb2S8,2.1522
Ba2As12Pt8,0.1901
Ba2Au4F16,2.4882
Ba4Au8F48,1.515899999999999
Ba2Au4O8,1.1785
Ba9Bi18S36,1.2751
Ba4Dy8S16,1.7407
Ba4Dy8Se16,1.3765
Ba4Dy8Te16,1.2938
Ba4Er8S16,1.721299999999999
Ba4Er8Se16,1.3665
Ba4Er8Te16,1.310799999999999
Ba4Gd8Se16,1.225499999999999
Ba4Gd8Te16,0.7582000000000001
Ba4Ho8S16,1.730699999999999
Ba4Ho8Te16,0.785
Ba4Lu8S16,1.7477
Ba4Lu8Se16,1.3795
Ba4Lu8Te16,0.7892999999999991
Ba1Mg2Bi2,0.396799999999999
Ba4Nd8S16,1.6426
Ba2P8Au4,0.190999999999999
Ba4Sm8S16,1.759
Ba4Sm8Se16,1.4344
Ba4Sm8Te16,0.7957000000000001
Ba12Ta24N48,2.658
Ba4Tb8S16,1.7379
Ba4Tb8Te16,1.2848
Ba4Tm8S16,1.7438999999999991
Ba4Tm8Se16,1.380399999999999
Ba4Tm8Te16,1.3203
Ba16Re6O37,1.511199999999999
Ba17Sr1Sm12Cl68,0.006199999999999
Ba84Cd16Bi72,0.3222
Ba2As1Au1,0.5211
Ba4Bi4O10,2.012899999999999
Ba4Bi4Se6O4,1.419299999999999
Ba2Bi1Au1,0.422799999999999
Ba2Bi1Sb1O6,1.6958000000000002
Ba4Ca2U2O12,2.1948
Ba2Ce1Pa1O6,0.016199999999999
Ba2Ce1Pb1O6,2.3054
Ba2Ce1Pt1O6,1.420399999999999
Ba2Ce1Sn1O6,2.144399999999999
Ba8Dy4Bi4O24,1.733099999999999
Ba2Dy1Nb1O6,2.8514
Ba2Dy1U1O6,0.8682999999999991
Ba2Er1Nb1O6,2.854199999999999
Ba2Er1Ru1O6,0.0716
Ba2Er1U1O6,0.8790000000000001
Ba2Eu1Mo1O6,0.0479
Ba8Ga4Bi4S20,2.391
Ba8Ga4Bi4Se20,1.7506
Ba4Gd4Si8O26,0.122499999999999
Ba8Gd4Bi4O24,1.5940999999999992
Ba8Gd4Cl28,1.561499999999999
Ba2Gd1Mo1O6,0.9083
Ba2Gd1Nb1O6,2.71
Ba4Gd2Ru2O12,0.1467
Ba2Gd1U1O6,0.8429000000000001
Ba4Ge10Ir8,0.201299999999999
Ba2H6Os1,1.9655
Ba4H12Pt2,1.7589
Ba8H32Pt4O32,2.4355
Ba2Hf1S4,0.8648
Ba8Hg4S20,1.6693
Ba2Ho1Nb1O6,2.8516
Ba2Ho1Ru1O6,0.076
Ba2Ho1U1O6,0.8731999999999991
Ba8In4Bi4O24,0.208
Ba4In2Bi2S10,1.452899999999999
Ba4In2Bi2Se10,1.061
Ba2In1Os1O6,0.4224
Ba2La1Ag5S6,1.4647
Ba2La1Bi1O6,1.827799999999999
Ba2La1Ru1O6,0.243699999999999
Ba4Li6Ta2N8,2.397
Ba4Li2Re2N8,1.7902
Ba2Li1Re1O6,1.8198
Ba2Lu1Bi1O6,1.4518
Ba2Lu1Nb1O6,2.847899999999999
Ba2Lu1Ru1O6,0.0556
Ba2Lu1U1O6,2.0388
Ba2Mg1U1O6,2.0335
Ba4Mn2W2O12,2.2267
Ba2Na1Re1O6,1.8688
Ba2Nd1Bi1O6,1.683
Ba4Nd2Ga2Se10,1.6574
Ba4Nd2In2Se10,1.0692
Ba2Nd1Nb1O6,2.987299999999999
Ba2Nd1Ru1O6,0.1501
Ba2Nd1U1O6,0.897999999999999
Ba8Nd4W4O24,1.7938
Ba8Pb4,0.028799999999999
Ba2Pb1O4,1.2232
Ba2Pr1Bi1O6,1.759999999999999
Ba4Pr2Nb2O12,2.9791
Ba4Pr2Ru2O12,0.1636
Ba2Pu1Pb1O6,0.437999999999999
Ba2Pu1Zn1O6,0.6585000000000001
Ba4Re12S22,1.338499999999999
Ba2Sc1U1O6,0.8326000000000001
Ba8Sm4Bi4O24,2.4961
Ba4Sm2Ga2Se10,1.7080000000000002
Ba2Sm1Mo1O6,0.9085
Ba8Sm4Nb4O24,2.907499999999999
Ba2Sm1Os1O6,0.0705
Ba2Sm1U1O6,0.8488999999999991
Ba8Sm4W4O24,1.7704
Ba2Sn1Hg1,0.0374
Ba4Sr2U2O12,2.2855
Ba4Ta4O14,2.9471
Ba2Ta6Te2O21,2.8259
Ba2Ta1Bi1O6,2.536299999999999
Ba8Ta4Cr4O24,2.2009
Ba4Ta2Fe2O12,1.862299999999999
Ba8Ta4N12,2.0155
Ba2Ta1Tl1O6,2.241
Ba2Tb1Bi1O6,1.7302
Ba2Tb1Nb1O6,2.9923
Ba2Tb1W1O6,1.6795
Ba2Th1Cu2S5,0.9
Ba2Th1Cu2Se5,0.7546
Ba4Th2S12,1.3091
Ba4Tl2H14O14,2.4953
Ba8Tl8O20,0.6503999999999991
Ba2Tm1Nb1O6,2.8502
Ba2Tm1Ru1O6,0.0645
Ba16U8As16O80,2.2615
Ba4U2P4O20,2.1977
Ba4U4O14,0.5051
Ba2U1Cd1O6,1.8464
Ba2U1Cr1O6,0.9356999999999992
Ba2U1Fe1O6,0.5156000000000001
Ba2U1In1O6,0.6779000000000001
Ba2U1Mn1O6,0.0613
Ba2U1Ni1O6,1.6246
Ba2U1Zn1O6,1.786299999999999
Ba8Y4Bi4O24,1.758499999999999
Ba2Y1Os1O6,0.055099999999999
Ba2Y1U1O6,0.8651999999999991
Ba8Y4W4O24,1.7928000000000002
Ba2Yb1Mo1O6,2.2435
Ba2Yb1U1O6,2.1684
Ba4Zn2Bi4,0.082399999999999
Ba9Ta6S24,1.108
Ba6Bi4Ru2O18,0.4466
Ba6Bi4Te2O18,2.1188
Ba6Bi12Pb2Se26,0.8085
Ba6Bi2N2,0.6466000000000001
Ba6Ca2Bi4O18,0.250399999999999
Ba12Dy8P16S64,2.418999999999999
Ba6Dy4Mo2O18,1.3959
Ba6Dy4W2O18,2.2084
Ba12Er8P16S64,2.4204
Ba6Er4Mo2O18,2.063
Ba6Eu2Ru4O18,0.0215
Ba6Fe4W2O18,1.515899999999999
Ba12Gd8P16S64,1.404399999999999
Ba6Hf2Ta8O30,2.4646999999999992
Ba12Ho8P16S64,2.4239
Ba6Ho4Mo2O18,2.1402
Ba6In4W2O18,2.6734
Ba6In2Ir4O18,0.016399999999999
Ba6Ir2C6N6,0.6643
Ba6Ir2N6,0.011199999999999
Ba3Lu2Mo1O9,1.898299999999999
Ba6Na2Bi2O12,1.7096
Ba3Pu1O6,0.3789
Ba6Sm2In2S12,1.9722
Ba3Ta2Co1O9,2.229399999999999
Ba12Ta8Mn4O36,2.3396
Ba12Ta8Se36,1.202
Ba6Ta8Ti8O42,2.1932
Ba6Ta8Ti2O30,2.3532
Ba6Ta12Fe4O42,2.2005999999999992
Ba12Ta4As12O4,1.3151
Ba18Ta6N18Cl12,1.9944
Ba12Tb8P16S64,2.4175
Ba6Tb4W2O18,2.3808
Ba3Th1Se7,0.923
Ba6U2Ag2S12,0.6431
Ba6U2Fe4O18,1.0145
Ba6U2In4O18,1.5562
Ba24W8N32,2.03
Ba6Y4W2O18,2.3881
Ba12Pt9O27,1.5148
Ba8Ag2Au2O12,1.8623
Ba4Bi2O1,0.2841
Ba4Ce1Mn3O12,1.9704
Ba4Co1Re2O12,1.536
Ba4Li1Bi3O12,0.5661
Ba16Li4W8N28,2.050699999999999
Ba4Mg1Ta10O30,2.4682
Ba4Na1Bi3O12,0.2816
Ba4Nb2W1O12,2.7361
Ba8Pt2O12,1.8103999999999991
Ba4Re2Ni1O12,1.8907
Ba4Ta10Co1O30,2.4312
Ba4Ta10Fe1O30,2.040699999999999
Ba8Ti4Pt2O20,1.9973
Ba8U16As4O66,1.5822999999999992
Ba8W2N8Cl4,2.2089
Ba5Er8Ni4O21,2.4221
Ba10Li4W6O30,2.291499999999999
Ba10Li4U6O30,1.2725
Ba5Nd8Mn4O21,1.9202999999999992
Ba10Os6Cl2O30,0.6088
Ba10Os6N2O36,0.6002999999999991
Ba15Pt6O27,1.6295000000000002
Ba10Re6Br2O30,2.54
Ba10Re6Cl2O30,2.5265
Ba10Re6I2O30,1.9989
Ba10Re6N2O36,2.306499999999999
Ba10Re6O32,0.5103
Ba5Sm8Mn4O21,1.9766999999999992
Ba5Tm8Ni4O21,2.3991
Ba6Bi2Te3O18,2.0681
Ba12Gd2Re6O36,1.938899999999999
Ba12Gd4Fe8O30,2.1756
Ba12La4Fe8O30,2.396199999999999
Ba6Lu2W3O18,2.9903
Ba12Nd4Fe8O30,2.3557
Ba12Pr4Fe8O30,2.368999999999999
Ba12Pr6I38,1.0187
Ba6Ti5Pt1O18,2.0101
Ba12Y2Re6O36,1.9671
Ba8Bi4H2O1,0.5652
Ba8Bi4O17,0.9074
Ba8Ce3Sb4O24,1.8772
Ba8Eu1B6N12,0.3669
Ba16U4Pd2Se32,0.353299999999999
Ba36Au8O48,1.8544
Ba18U8Ag20S48,0.4032
Ba1Au2S4O16,1.785299999999999
Ba4Bi4F28,0.3525
Ba4Bi4F28,2.5411
Ba2Bi2I2O4,2.947
Ba2Bi2N2O10,2.219299999999999
Ba8Bi8Se24,0.9943999999999992
Ba8Ca16W8N32,2.578899999999999
Ba4Ca4Pb4,0.2152
Ba2Ce2N4,0.6481
Ba4Ce4O12,2.2207
Ba2Dy2Cu2Te6,0.5186000000000001
Ba2Er2Ag2Se6,1.3771
Ba2Er2Cu2S6,1.157499999999999
Ba2Er2Cu2Se6,0.9489
Ba4Fe8Pb4O20,1.3233
Ba4Gd8O16,2.8146
Ba2Gd4Pd2O10,0.0275
Ba4Gd8Sc8O28,2.9688
Ba2Gd4Si6O20,0.145799999999999
Ba2Gd2Cu2S6,1.0862
Ba2Gd2Cu2Se6,0.8826
Ba2Gd2Cu2Te6,0.503099999999999
Ba2Hf2N4,1.2537
Ba4Hf4S12,1.252399999999999
Ba4Hg8Cl8O8,1.610999999999999
Ba2Hg2As4O14,1.4956
Ba1Hg1O2,2.2727
Ba6Hg6Ru6O30,0.3504
Ba4Hg4S8,1.1569
Ba4La4Bi8S24,0.837299999999999
Ba4La4Sb8Se24,0.6452999999999991
Ba2La4Si4S16,2.7289000000000003
Ba2La4Pd2O10,2.3421
Ba2La4Pt2O10,2.4067
Ba2La4Zn2S10,1.4565
Ba2La2Ag2Se6,1.6435
Ba2La2Ag2Te6,1.2931
Ba4La4Cu4S12,1.0948
Ba4La4Cu4Se12,1.205299999999999
Ba4La4Cu4Te12,0.8131
Ba3Na3Bi3,0.2355
Ba4Nd4Sn8S24,0.3689
Ba1Nd2Co1O5,1.405899999999999
Ba1Nd2Ni1O5,1.9985
Ba2Nd4Pd2O10,2.219099999999999
Ba2Nd4Pt2O10,2.5077
Ba2Nd2Ag2S6,1.6623
Ba4Nd4Cu4S12,1.3142
Ba2Nd2Cu2Te6,0.513899999999999
Ba2Np2H6O12,1.458699999999999
Ba4Np4O16,0.510799999999999
Ba4P12Pt8,0.129199999999999
Ba2Pb6O8,2.0029
Ba1Pb1F6,2.8927
Ba2Pb2O6,0.199299999999999
Ba4Pr4Sn8S24,0.3729
Ba1Pr2Ni1O5,2.167399999999999
Ba2Pr4Pd2O10,2.138899999999999
Ba2Pr2Cu2Te6,0.5658000000000001
Ba12Pt24S36,1.3649
Ba4Re8O36,0.4154
Ba4Re4N12,1.7855
Ba1Sm2Co1O5,1.4676
Ba2Sm4Pd2O10,2.032
Ba2Sn2Hg2S8,1.8593
Ba2Sr8U6O28,2.0784
Ba2Sr2Ta4O14,2.1929
Ba12Ta24O72,2.1161
Ba2Tb2Ag2Te6,0.7735000000000001
Ba2Tb2Cu2Te6,0.530999999999999
Ba4Th8S20,1.735999999999999
Ba2Th2N4,0.435799999999999
Ba4Tl8O16,0.8200000000000001
Ba2U4V4O24,1.9806999999999992
Ba2U2I12,0.199899999999999
Ba4U4O16,2.1144
Ba4U4Te24,0.181699999999999
Ba4U4Ti4O24,1.9643
Ba4W4N12,1.505
Ba2Yb2Cu2Te6,0.7876000000000001
Be5Pt1,0.095299999999999
Bi4Mo24Cl60,2.133299999999999
Bi4W24Cl60,1.9545
Bi10Mo3O24,2.6912000000000003
Bi14Mo1O24,2.6318
Bi14S1O24,2.706699999999999
Bi60As4O100,2.2346
Bi8Mo12O48,2.717
Bi8P12Se36,1.3635
Bi4Pb6S12,0.5274999999999991
Bi48Cl20O62,2.1764
Bi8Au20F84,1.2285
Bi16C8O40,2.4505999999999992
Bi16Mo16O72,2.88
Bi4Mo4Se4O26,2.8105
Bi8Mo4O24,2.129299999999999
Bi8O12,2.194499999999999
Bi2Pb1Se4,0.4549
Bi8Pd4O16,0.498199999999999
Bi4Pt4O14,0.7805000000000001
Bi4S4O2,0.9401
Bi8S12,1.361799999999999
Bi4S2O4,0.8266
Bi2Se3,0.3769
Bi8Se16Cl28,1.0179
Bi2Se1O2,0.368699999999999
Bi8Se4O20,2.8422
Bi32Te32O112,2.561199999999999
Bi2Te2S1,0.436799999999999
Bi2Te2Se1,0.544199999999999
Bi2Te3,0.3388
Bi8Te16O44,2.828999999999999
Bi4Te14Cl16,0.8311000000000001
Bi8Te4O20,2.4275
Bi4Te2O12,1.259299999999999
Bi8W4O24,1.913999999999999
Bi6Te4Cl20,1.2582
Bi3Br1O4,0.9257999999999992
Bi6Cl2O8,0.6355000000000001
Bi12I4O16,1.075599999999999
Bi18P6O42,2.3229
Bi18P6O42,2.5842
Bi6Sb2O14,2.168599999999999
Bi32Au16O72,0.7795000000000001
Bi16B8O36,2.8354
Bi32B8P8O80,2.8219000000000003
Bi16Br8O20,2.651699999999999
Bi16I8O20,2.3625
Bi8O14,0.9108
Bi8Ru2Br4,0.5357000000000001
Bi8Ru2I4,0.165
Bi20N4O40,2.6161
Bi6As4Pb1O20,2.9694000000000003
Bi24Cl12O28F4,2.8698
Bi48Pt8Cl80,1.612499999999999
Bi32As4Au4Cl36,1.385199999999999
Bi72Ir16I24,0.5545
Bi2As2O8,2.8719
Bi4Au4Cl24,1.5926
Bi4B4Pb4O16,2.8773
Bi4Br12,2.8826
Bi2Br2O2,2.2251
Bi2Cl2O2,2.5681000000000003
Bi1F5,1.8137999999999992
Bi2I6,2.5349
Bi2I2O2,1.472999999999999
Bi4I4O16,2.3939999999999992
Bi4Ir4S4,0.6889999999999991
Bi4Ir4Se4,0.5346000000000001
Bi4Kr4F28,2.3847
Bi4O8,1.1596
Bi8P8S32,1.5094
Bi1Pb1Br1O2,1.510199999999998
Bi2Pb2Cl2O4,2.073699999999999
Bi1Pb1I1O2,1.7164
Bi4Rh4S4,0.340399999999999
Bi4Rh4Se4,0.237999999999999
Bi4S4Br4,2.032
Bi4S4Cl4,1.9636
Bi1Sb1,0.1101
Bi4Sb12P24O96,2.2741
Bi1Sb3F20,2.1691
Bi2Sb2O8,2.4246
Bi4Se4Cl4,1.8404
Bi1Te1Br1,1.2364
Bi2Te2Cl2,1.5135
Bi1Te1I1,1.2325
Bi4Te4Ir4,0.460799999999999
Bi4Te4N4O24,2.8005
Bi4Te4O16,2.2024
Bi4Te4Rh4,0.162
Ca1Au2F12,1.5298999999999991
Ca2Au4O8,1.6618
Ca8Bi16O32,2.6093
Ca4Er8S16,1.5692
Ca4Ho8S16,1.552699999999999
Ca4Lu8S16,1.5804
Ca1Mg2Bi2,0.3886
Ca3P6Ir6,0.494299999999999
Ca4Tm8S16,1.567899999999999
Ca42Cd8Bi36,0.152
Ca2Bi1Au1,0.0002
Ca4Co2W2O12,1.2029
Ca2H6Os1,2.7001
Ca4La2Ru2O12,0.428499999999999
Ca4Mn2W2O12,2.1817
Ca4Nd2Ru2O12,0.499299999999999
Ca4Ni2W2O12,2.933
Ca4Pb2O8,1.4813
Ca4Pr8Mo12O42,0.1934
Ca2Pt3O8,1.1236
Ca2Sn1Hg1,0.1485
Ca8Ta4Cr4O24,2.7922
Ca4Ta2Mo2O12,1.4283
Ca8Ta4N12,1.9488999999999992
Ca4Ta2V2O12,0.431499999999999
Ca3Bi1N1,0.3687
Ca3Bi1P1,0.0759
Ca6Hf6Ag2F40,0.8421000000000001
Ca54Re18N72,0.066999999999999
Ca12Tl8O24,1.204699999999999
Ca3U1N4,1.333299999999999
Ca6U2O12,2.260099999999999
Ca43Al16Pb13,0.238999999999999
Ca4Bi2O1,0.8131
Ca4Bi6O13,2.169199999999999
Ca8Hf2N8,1.2158
Ca30Re12O72,2.1283
Ca51W12N56O3,1.8087
Ca8Bi16O40,0.0504
Ca1Bi1I1O2,1.553
Ca4Bi4O12,0.665299999999999
Ca2Ce8Si6O26,0.1608
Ca1Ce1N2,0.389199999999999
Ca1Ce1V2O8,1.5741
Ca1Hf1N2,0.543299999999999
Ca1Hg1O2,2.125
Ca2Ho2Mo4O12,1.3182
Ca2Ho2V4O12,1.1093
Ca2Np2H18O18,1.4339
Ca2Np2P4O16,0.480099999999999
Ca4Np4H28O32,1.5401
Ca4Pb4I24,1.785299999999999
Ca2Pr2Mo4O12,1.2495
Ca1Pt1F6,2.643
Ca4Re4N12,1.8813
Ca2Ta4Bi4O18,2.9261
Ca2U2Mo8O32,2.0852
Ca4U4P8O32,0.141299999999999
Ca2U2Se4O16,1.9467999999999992
Ca2U4B4O20,2.0258
Ca1U3Ti8O24,0.0593
Ca2U2I12,0.9085
Ca1U1O4,2.103899999999999
Ca2W2N6,0.5612
Cd2Au4F16,1.7789
Cd2Au4F24,1.8309
Cd1Pt3O6,0.2137
Cd4W24Br56,2.0519
Cd4Bi2As2O12,2.0584
Cd4Hg26As16Cl24,1.4033
Cd6B8Pb6O24,2.654899999999999
Cd4Mo1W3O16,2.7918000000000003
Cd2Au2O4,0.8955000000000001
Cd1Bi12Cl14O12,1.5446
Cd4Bi4B4F40,2.0295
Cd2Bi2Cl2O4,2.8427
Cd2Bi2O6,0.766999999999999
Cd4Ge4Bi8O24,1.9126999999999992
Cd2Hg4S2O12,1.3352
Cd2Hg4Se2O12,0.9505999999999992
Cd2Hg8As4I8,0.4617
Cd4Hg24As16Br24,1.3456
Cd4Hg24Sb16I24,0.8608999999999991
Cd4Hg4As4Br4,1.0028
Cd1Hg1O2,0.3315
Cd4P56Pb4,1.3747999999999991
Cd1Pb2Cl2O2,2.435499999999999
Cd1Pb1F6,2.3364000000000003
Cd1Pt1F6,2.1901
Cd2Te2Pb12O20,2.0475
Ce2Al40V4,0.021799999999998
Ce3Al9Br36,0.2026
Ce1As12Ru4,0.238199999999999
Ce8B24H96,0.3439
Ce2B8Os8,0.226899999999999
Ce2Cl8O32,1.6159
Ce1Fe4As12,0.1467
Ce1Fe4P12,0.520899999999999
Ce1Fe4Sb12,0.231199999999999
Ce2I8O24,1.4876
Ce1Mo6S8,0.338499999999999
Ce1P12Os4,0.282999999999999
Ce1P12Ru4,0.191500000000001
Ce2P6O18,0.222799999999999
Ce8P32O96,1.2397
Ce8S16O64,1.0168
Ce1Sb12Os4,0.0514
Ce1Sb12Ru4,0.0433
Ce4Se8O24,1.2671
Ce8Se16O64,1.2845
Ce4Al18Ir6,0.0205
Ce4Ga18Ir6,0.0078
Ce8H32S12O64,0.0454
Ce2Se1N2,0.8943000000000001
Ce8Si8O28,0.0701
Ce4Te8Cl4O22,1.4548
Ce4Te14Br4O34,1.2014
Ce6Bi8Pt6,0.2042
Ce12C4Cl20,0.209399999999999
Ce6Cu2Si2S14,0.0071
Ce6Sb8Pt6,0.2721
Ce6Si4S16Br2,0.0883
Ce6Si4S16Cl2,0.1024
Ce6Si4S16I2,0.1101
Ce6Si2Ag2S14,0.019699999999999
Ce16C4I24N4,0.008099999999999
Ce8Se6N4,0.0143
Ce6Th4O19,0.102799999999999
Ce2Ag12N18O54,2.2186
Ce4As4O16F4,1.495499999999999
Ce4As4Rh4,0.025599999999999
Ce4B4O12,0.058699999999999
Ce4Bi4Rh4,0.0144
Ce6C6O18F6,0.079899999999999
Ce2Cl6,0.011099999999999
Ce2Cu2Ge2H2,0.2008
Ce6F18,0.9484
Ce6F24,2.1473
Ce2Hf4F22,0.1023
Ce2Hf2F14,0.3565
Ce2I6,0.7358999999999991
Ce4Mg4B20O40,0.289999999999999
Ce2Ni2Ge2,0.056799999999999
Ce1O2,1.8647
Ce4P8O28,1.3714
Ce2P10O28,0.677099999999999
Ce8P8S32,0.223899999999999
Ce2Pt4,0.0089
Ce1Sc3B4O12,0.2621
Ce4Si12N20,0.118999999999999
Ce3Si3B3O15,0.157499999999999
Ce8Sn24Ru8,0.0053
Ce4Tl4P16O48,0.346899999999999
Ce4Tl4P8S24,0.2887
Ce4Tl8P8S28,0.232899999999999
Ce8Tl8F40,1.511
Ce4Tl4P8S28,0.278299999999999
Ce2Zr4F22,0.3153
Ce2Zr2F14,0.029399999999999
Co4Pt12O24,0.1366
Co18Te10Pb12O60,1.3596
Co2Au2O4,0.5255000000000001
Co8Bi16S8O56,2.244799999999999
Co2Bi12S4O32,2.350099999999999
Co4Bi4As4O20,2.0761
Co1Pt1F6,1.9373
Cr1Bi14O24,2.019199999999999
Cr4Bi12O30,2.408
Cr4Hg2O8,1.2575
Cr8P16Pb12O64,2.4535
Cr4W2O12,1.609599999999999
Cr4Ag1Bi1O14,1.698599999999999
Cr1Au1O2,1.266
Cr1Au1S2,0.5956
Cr4B4Pb4O16,2.324799999999999
Cr2Hg2Pb4O12,2.0918
Cr4Hg12Pb8O32,1.9243
Cr4Hg24As16Br28,1.143599999999999
Cr4Hg4O16,1.931
Cr4P8Pb20O52,2.1886
Cr1P6W3O24,2.0678
Cr2Pb4O10,1.8544
Cr4Pb4O16,2.0522
Cr2Sb6Pb8O26,1.1067
Cs4Bi16Te24,0.848399999999999
Cs40Tl24Si4O16,0.192299999999999
Cs2Ag1Au1Cl6,0.448
Cs2Ag1Bi1Cl6,1.8663
Cs2Ag1Bi1F6,2.7645
Cs2Al1Tl1H6,1.136199999999999
Cs4As4Pt2,0.9559
Cs4Au4Se6,1.4734
Cs4Bi4Pd2,0.454
Cs16Bi32O56,2.6314
Cs4Bi8Se14,0.7744999999999991
Cs8Cd4Bi8S20,1.7308999999999992
Cs2Ce10Os2I17,0.0196
Cs2Ce1Ag1Br6,2.6247
Cs2Ce1Cl6,1.823599999999999
Cs4Ce2O6,2.2437
Cs8Gd4Cl20,2.9185
Cs2Hf1I6,2.2062
Cs4Hg2B18Se18,1.8712
Cs2Hg3Ge2S8,1.7759
Cs2Hg3I8,1.731399999999999
Cs4Hg6S8,1.732499999999999
Cs4Hg6Se8,1.195399999999999
Cs4Hg12S14,0.6230999999999991
Cs8Hg4Br16,2.4673
Cs8Hg4Br16,2.8128
Cs2Hg1F4,2.0818
Cs4Hg2I8,2.0411
Cs2Hg1O2,2.068899999999999
Cs2Hg1Te1,1.8046
Cs2Ir1F6,0.077699999999999
Cs2K1Ce1Br6,0.314
Cs2La10Ru2I17,0.0035
Cs2Li1Ce1Br6,0.2909
Cs2Li1Gd1Cl6,2.782
Cs2Li1Nd1I6,2.9743
Cs2Li1Pr1I6,2.960899999999999
Cs8Mn4Bi8S20,0.8597999999999991
Cs8Na12Tl4O16,1.7763
Cs2Na1Ce1Cl6,0.3601
Cs2Na1Ce1I6,2.3813
Cs2Na1Tl1Cl6,1.9178
Cs2Na1U1Cl6,0.5004000000000001
Cs2Nb6Pb1Cl18,1.0644
Cs8Np4S8O40,0.213099999999999
Cs2Np1Br6,0.091099999999999
Cs2Np1O4,0.2765
Cs8P4Au4S16,2.1538
Cs4Pb2I4Cl4,2.9646
Cs4Pb4O6,2.0761
Cs2Pb1Cl6,1.4541
Cs2Pb1Cl1F6,0.098999999999999
Cs8Pb4O8,1.8593
Cs4Pb2O6,1.3724
Cs2Pr10Co2I17,0.052999999999999
Cs2Pr10Ru2I17,0.0013
Cs4Pt2,1.6743
Cs2Pt3S4,1.6386
Cs2Pt3Se4,1.3326
Cs2Pt1Br6,1.4417
Cs2Pt1C2,1.2698
Cs2Pt1Cl6,2.1146
Cs2Pt1F6,2.6933
Cs2Pt1I6,0.655099999999999
Cs2Pu1Cl6,0.365
Cs8Re4Cl12O12,2.3472
Cs12Re12Se30,0.7173
Cs16Re24Se32I24,2.0776
Cs2Re1Cl6,1.2397
Cs2Re1F6,1.8006000000000002
Cs4Sb4Pt2,0.740699999999999
Cs2Sc1Tl1I6,2.4146
Cs4Sn2Au4S8,2.0449
Cs2Sn2Hg3S8,1.6243
Cs8Sn12Hg4Se32,1.203399999999999
Cs2Ta6Pb1Cl18,1.4561000000000002
Cs4Ta2Ag2S8,2.5939
Cs2Tb6Te7N2,0.7433999999999991
Cs8Th4P12S36,2.285199999999999
Cs16Th16P16Se104,1.6041999999999992
Cs2Ti1W3O12,2.8344
Cs2Tl1Ag1F6,0.805299999999999
Cs2Tl1As1Br6,1.2314
Cs2Tl1As1I6,1.0046
Cs16Tl8Br40,1.276
Cs8Tl4Cl20,1.809
Cs2Tl1Fe1F6,2.9057
Cs2Tl1In1Br6,1.8255
Cs2Tl1In1Cl6,2.7015
Cs2Tl1Rh1F6,1.9056
Cs2Tl1Ru1F6,0.5579000000000001
Cs4U2Br8O4,1.9545
Cs2U1Cl4O2,2.3217
Cs4U2Si12O30,0.270799999999999
Cs16U8Si16O64,2.2088
Cs2U2O7,1.5078
Cs2U3Te2O14,1.8635
Cs2U4Nb4O23,1.838499999999999
Cs8U4As8O36,2.1136
Cs24U12Mo12O84,1.9356
Cs2U1O4,1.8211
Cs8U4P8O36,2.1222
Cs8W4S16,2.1616
Cs8Zn4Bi8S20,1.7343000000000002
Cs2Zr1W3O12,2.9771
Cs12Au8Br44,1.1515
Cs6Au2O2,1.3261
Cs36Au12O24,1.8333
Cs3Bi1,0.178999999999999
Cs12Bi8P12S48,1.9768
Cs3Bi2Br9,2.599599999999999
Cs6Bi4I18,2.3796
Cs12Bi4Se12,2.034799999999999
Cs12Ce4Cl24,0.460399999999999
Cs6Er4I18,2.8905000000000003
Cs6Er10P12S48,2.2701
Cs12Er4O12,2.2999
Cs12Eu4Si24O60,0.6834
Cs6Ge8Au2,0.9316
Cs6Hf4Cu2Te20,1.189
Cs6Hf4P10S36,2.1363
Cs6Ho14Se24,1.4958
Cs12Ho4O12,2.3008
Cs6Li2Pb8,0.7565000000000001
Cs6Na2Pb8,0.4754
Cs12Nd4P8S32,2.3644
Cs12Nd4Cr12O48,2.6163
Cs6Np2Cl8O4,0.2279
Cs6Np2H16O18,1.6332
Cs6Pb8Au2,0.7054
Cs6Pr10P12S48,2.3179
Cs12Pu4H16O28,1.229199999999999
Cs12Re8N20,0.3266
Cs6Re6S8I8,2.4339
Cs6Re12S14Cl14,2.372099999999999
Cs12Re4O20,2.0941
Cs12Re4O20,2.3753
Cs12Sm4P8S32,2.373199999999999
Cs6Sm14Se24,1.4741
Cs6Sm14Te24,0.864599999999999
Cs12Ta8S44,1.7232
Cs12Ta4S16,2.9443
Cs6Tb20C8Cl42,0.6759000000000001
Cs6Tb14Te24,0.8438000000000001
Cs6Tl4Cl18,2.189
Cs12Tl4O12,1.5853000000000002
Cs3Tm11Te18,0.9707
Cs6Tm4I18,2.8922
Cs12Tm4O12,2.6196
Cs12U8Ge8O44,0.194299999999999
Cs6U4P2O20,2.150299999999999
Cs4Au6S5,2.409
Cs32Bi8As24Se56,1.4702
Cs8Bi2Sb2Cl24,0.315399999999999
Cs8Hf6Se28,1.6893999999999991
Cs16Hf4O16,2.7399
Cs4Ir1O4,0.3652
Cs8La2N16O48,0.351099999999999
Cs16Os8Cl40O4,0.8307
Cs16Pb36,0.9064999999999992
Cs16Pb4O16,2.034399999999999
Cs4Pr6Os1I13,0.0501
Cs8Re12S26,1.395899999999999
Cs8Re12Se26,1.002199999999999
Cs8Sn42Hg4,0.2411
Cs16Th8P20Se68,1.3123
Cs8Tl2Sb2Cl24,0.7270000000000001
Cs8U2Ge16O40,0.012199999999999
Cs8U4V4O26,2.087799999999999
Cs4U3Mo3O20,2.0623
Cs4U3Si4O17,0.0235
Cs16U20O68,1.5681999999999992
Cs8U2C6O22,2.0837
Cs10Na2W8N20,1.850099999999999
Cs10Re12S16Cl14,2.6061
Cs20Th4P12S48,2.0219
Cs6Dy21S34Cl1,1.9469
Cs6Dy21Te34Cl1,0.885599999999999
Cs6Ho21S34Cl1,1.9586
Cs6Ho21Te34Cl1,0.8943999999999991
Cs24U8Cu48S60,0.517199999999999
Cs6U5As4O28,2.0327
Cs28In16Bi24,0.3083
Cs7Au5O2,0.803199999999999
Cs16Re24S54,1.429799999999999