composition,band_gap
Gd4Ga2Sb2O14,2.377399999999999
Gd12Ge12O42,2.7793
Gd2Ge1Mo1O8,2.4793000000000003
Gd4Hf4O14,2.8263
Gd8Hf4S20,1.0037
Gd4Hg2O8,1.9856
Gd4In2Sb2O14,2.3762
Gd4Mg2Pt2O12,2.035799999999999
Gd4Mn2Co2O12,0.9184
Gd4Mn2Sb2O14,1.6004
Gd8Mo4O24,2.1748
Gd4Nb4S14O60,0.029799999999999
Gd16O24,2.9411
Gd8S12,0.5267000000000001
Gd2S1O2,2.019399999999999
Gd8Se12,0.449
Gd2Se1O2,1.3547
Gd12Se6O6F12,1.348399999999999
Gd8Si16C4N24,2.0209
Gd8Te12,0.056499999999999
Gd4Te8O22,0.248
Gd2Te1O2,0.772899999999999
Gd6As10O24,2.387
Gd3Au1O6,1.5063
Gd6C2I6,0.061099999999999
Gd6Cu6Sb8,0.3003
Gd6Cu2Ge2Se14,0.7897000000000001
Gd6Cu2Si2Se14,0.844399999999999
Gd12Ga20O48,2.9042000000000003
Gd6Ga2O12,2.9661
Gd12In4S24,0.9636
Gd6N2Cl12,1.9483
Gd24Os8O56,0.1301
Gd12Re4O32,1.643199999999998
Gd6Ru2O14,0.1389
Gd6S2O2F10,1.9623
Gd6Sb8Au6,0.4978
Gd6Sb10O24,2.7225
Gd6Sb2O14,2.4705
Gd12Sc4S24,0.389599999999999
Gd6Se4N2O2,1.754
Gd12Se12N4,1.0937
Gd6Se8O24F2,2.7821
Gd6Si4Cl10O12,2.531
Gd6Ta2O14,2.6563
Gd12Te8N4O4,0.844499999999999
Gd16Au8O36,1.9649
Gd4Ti1Se4O4,0.3285
Gd6Co1Cl10,0.0748
Gd6W1O12,2.7937000000000003
Gd2Ag2W4O16,2.8117
Gd4B4S12O48,2.6591
Gd6B6N12,2.1031
Gd4Be8B20O44,0.3102
Gd1Bi2Br1O4,1.023199999999999
Gd1Bi2Cl1O4,0.8529
Gd1Bi2I1O4,1.3080999999999992
Gd2Br6,2.2701
Gd2Br2O2,0.081199999999999
Gd2Cl6,2.0054
Gd4Cr4B16,0.2551
Gd4Cr4Ge4O20,2.412499999999999
Gd4Cr4O12,2.6309
Gd2Cr2Te2O12,2.6147
Gd4Cu4S8,0.9113
Gd4Cu4Se8,0.6894
Gd1F3,2.862199999999999
Gd8H8Se16O64,2.8802000000000003
Gd2H24Cl6O12,0.436599999999999
Gd2H36I6O18,2.0874
Gd4H4C4O16,2.8483
Gd4H4S4O20,2.9383
Gd1H1Se1,0.5979000000000001
Gd4I4O4,0.252299999999999
Gd4In8Cl20,1.1082
Gd6In6O18,1.7714
Gd4Mn8O20,1.1582
Gd4Mn4O12,0.404099999999999
Gd2Mo2Cl2O8,2.4595
Gd4Mo4O16F4,1.3117
Gd2Nb2O8,0.2072
Gd8P8S8,0.272699999999999
Gd8P8S32,1.4795
Gd4Pt4F28,2.3121
Gd4S4Cl4O16,1.9163
Gd2S2I2,1.487199999999999
Gd4S4O16F4,0.2226
Gd4Sc4S12,1.1773999999999991
Gd4Se4Cl4O12,2.993
Gd2Ti2Cl2O6,2.9895
Gd4Tl4Mo8O32,2.9359
Gd2Tl2W4O16,2.9492000000000003
Gd1Tl1Se2,0.444399999999999
Gd1Tl1Te2,0.0586
Gd4V4Se8O32,2.0264
Gd2V2O8,2.9685
Gd2Zn2As2O2,0.6654999999999991
Gd2Zn2P2O2,0.5757
Ge4Pb8S16,2.0309
Ge12Ir8Se12,0.5894
Ge24Os16,1.084299999999999
Ge9Pb15O33,2.501
Ge20Ir16,0.1279
Ge2As2Au2,0.1764
Ge6Pb6O18,2.7131
Ge4Pb4S12,1.757899999999999
Ge4Pt4S4,1.019599999999999
Ge4Pt4Se4,0.6596000000000001
Ge4Te4Pt4,0.255899999999999
H14Au2N8O30,1.9431
H8Pt1N2Cl6,1.7803
H32W4S16N8,2.1658
H9Au1Cl4O4,1.4877
H4Pb4I4O4,2.7209
Hf2P4S12,2.3179
Hf4Se16Cl24,1.3426
Hf2Se4Cl24,2.799
Hf1Te4Cl6,1.2626
Hf5Tl20S20,1.4675
Hf5Tl20Se20,1.3377
Hf3Tl12Te12,0.504999999999999
Hf4Bi4O14,2.936799999999999
Hf16N16O8,1.9895
Hf2S1N2,0.8851000000000001
Hf2Sb2Pb4O13,1.7838
Hf2Se1N2,0.6071000000000001
Hf6Ag2Hg6F40,0.760899999999999
Hf12N16,1.2648
Hf6Ni6Sb8,0.7419999999999991
Hf3Te1Pb4O13,1.7083
Hf3Tl2Cu2Se8,0.5025000000000001
Hf12B2Cl28,0.016099999999999
Hf12C2Cl28,1.3758
Hf2Br2N2,2.1298
Hf2Cu4Te6,0.0517
Hf2Ge2Te8,0.3307
Hf2Hg6Se4Cl12,2.5501
Hf8Hg32As16Cl48,1.3812
Hf8Hg32P16Cl48,2.0914
Hf4I16,2.3487
Hf2I2N2,0.9778
Hf2Mg2N4,0.8472000000000001
Hf2N2Cl2,2.2055
Hf6Nb6P18O72,2.9362
Hf1Ni1Sn1,0.386899999999999
Hf1S2,1.2237
Hf2S6,1.1326
Hf1Sb4Mo1,0.1391
Hf1Se2,0.5342
Hf1Si1Ru2,0.169499999999999
Hf1Sn1Pd1,0.0338
Hf4Sn4S12,1.1981
Hf4Te28Se4Cl24,1.0147
Hf2Tl4Pb2Se8,0.6334000000000001
Hf2Tl4Se6,0.6963
Hf2Tl2Cu2S6,0.7967000000000001
Hf2Tl2Cu2Se6,0.419999999999999
Hf4V8O28,2.7436
Hf1Zn1N2,2.3179
Hg1As2O6,0.7083
Hg2Au4F16,1.573799999999999
Hg2Bi4S8,1.1861
Hg2Cl4O12,2.6494
Hg2I4O12,2.6932
Hg4Mo24Cl56,1.73
Hg8P16O48,2.5782
Hg1Sb2O6,0.5173000000000001
Hg4Sb16S32,1.258
Hg8As4F24,1.4207
Hg2Ge1Se4,0.4336
Hg8I4O4,0.9192
Hg4Mo2O8,1.8942
Hg8N4O16,1.5703
Hg4P4O14,1.484199999999999
Hg2P2S7,1.809499999999999
Hg4P6Cl2,1.1347
Hg8P4O12F4,1.452
Hg4S2O8,1.9921
Hg8Se4O12,2.328999999999999
Hg16Se8O40,1.0118
Hg8Te4Br12,1.882099999999999
Hg4W2O8,1.9051999999999991
Hg12As8O32,1.0974
Hg6B4O12,2.629
Hg24N16O64,0.8522000000000001
Hg12P8O32,1.507099999999999
Hg12S8Br8,1.487
Hg6S4Cl4,1.9398
Hg6S4F4,1.8372
Hg12S8I8,1.3129
Hg12Se8Br8,1.3272
Hg6Se4Cl4,1.7701
Hg6Se4F4,1.9752
Hg12Se8I8,1.297
Hg6Te4Br4,1.704
Hg6Te4Cl4,1.9134
Hg12Te8I8,1.4667
Hg6As4F24,2.6234
Hg6As16S16Br12,1.7802000000000002
Hg12As4O16,0.5021
Hg12As4O20,1.3663
Hg3Bi2S2Cl8,2.7814
Hg12H16I8O48,1.144299999999999
Hg12P4O16,2.2021
Hg9S3O18,0.5752
Hg6Se6O20,1.8688999999999991
Hg9Se3O18,0.4367
Hg24Te8Br32,2.0454
Hg24Te8Cl32,2.3567
Hg24Te8O48,1.236899999999999
Hg8Bi2S4Cl10,2.3713
Hg16Bi4Se8Cl20,2.105
Hg8O2F12,0.2036
Hg8P4O14,1.588499999999999
Hg8Pb4N12O38,1.8082
Hg32Sb16I24,0.726799999999999
Hg10Cl4O8,0.186199999999999
Hg20Sb8I24,1.5463
Hg24Bi4As16Cl28,1.3316
Hg24Bi4Sb16Br28,1.079
Hg24P16Pb4Cl24,2.1079
Hg24Sb20Br28,1.0115
Hg14P4O20,1.6085
Hg28Cl8O12,1.3838
Hg32Br12O16,0.6139
Hg36Bi8As16Br48,1.1979
Hg4As8Xe20F88,2.1803
Hg4As4F28,2.4936
Hg2As2O6,1.235099999999999
Hg8B32O56,2.7564
Hg2Br2,2.2557
Hg2Br4,2.5527
Hg2Cl2,2.7243
Hg4Cl8,2.8686
Hg2F2,1.7704
Hg1F2,0.9687
Hg4H8Se4O20,1.4897
Hg4H4Cl4O16,2.3817
Hg4H4N4O16,1.5664
Hg4H4O4F4,1.459099999999999
Hg2I2,1.6513
Hg2I4,1.3324
Hg4I4N4O12,1.9661
Hg2Mo2O8,2.2557
Hg8N8O24,2.568699999999999
Hg4O4,1.1867
Hg4P56Pb4,1.3483
Hg2P4Pd2O14,1.3365
Hg4P8Xe20F88,2.0719
Hg2P2S6,1.7549
Hg4P4Se12,1.2066
Hg1Pb2Cl2O2,2.247799999999999
Hg1Pb1F6,1.3192
Hg4S8O28,2.6024000000000003
Hg4S16,1.047499999999999
Hg2S2O8,1.3525
Hg4Sb8F52,0.201899999999999
Hg4Sb8Xe20F88,2.2327
Hg4Sb12Xe4F68,2.5858
Hg3Se3,1.0432
Hg4Se4O12,2.5571
Hg2Se2O8,0.8439999999999991
Hg2Te4O4F20,2.4788
Ho2Cu6S6,1.4907
Ho2Zn6P6,0.3817
Ho10Te7S10,1.9446999999999992
Ho10Te7S10,1.576999999999999
Ho22Sn20,0.014999999999999
Ho11Te16Cl1O48,2.8672
Ho26Zn116,0.0479
Ho4Au10F42,1.6192000000000002
Ho2C1F2,1.1355
Ho4Cd2S8,1.1172
Ho4Mg2S8,1.9659
Ho4Mn4O14,1.1659
Ho4Mn2Ni2O12,1.8696
Ho8Mo4O24,2.1491
Ho4Pb4O14,1.1706
Ho4Pt4O14,1.506899999999999
Ho12S18,1.4612999999999992
Ho8Se12,1.315
Ho2Se1O2,2.1517
Ho4Sn4O14,2.7013
Ho8Te12,0.530799999999999
Ho2Te1O2,0.7161999999999991
Ho2Te1S2,1.7469
Ho6Cu6Sb8,0.3143
Ho6Cu2Ge2S14,1.759199999999999
Ho6Cu2Si2S14,1.822499999999999
Ho24Ga16,0.0276
Ho6Ga2S12,2.094099999999999
Ho12Re4O32,1.7553
Ho6Sb8Au6,0.5575999999999991
Ho6Sb2O14,2.7558
Ho12Se12N4,1.5205000000000002
Ho12Te12N4,1.136199999999999
Ho16C28,0.7510000000000001
Ho16Cd4Ni4,0.0156
Ho16Mg4Ni4,0.036399999999999
Ho32Ru8Br40,0.2507
Ho8Zn10Ge12,0.0043
Ho40Ir8Br72,0.730599999999999
Ho12Al86Mo8,0.029999999999999
Ho6H40N8O49,2.9414
Ho6Re1O12,0.0359
Ho12Ta8Al86,0.0132
Ho14C4I24N2,1.261299999999999
Ho7Pt1I12,0.0819
Ho16Ga6Co2,0.007199999999999
Ho16In6Co2,0.0032
Ho8Ag8S16,2.0621
Ho4Ag4Se8,1.271199999999999
Ho2Ag2Te4,0.8999
Ho4As4S4,0.0177
Ho4As4S4,0.468399999999999
Ho4As4Se4,0.2103
Ho4B16Mo4,0.5762
Ho4B16W4,0.2705
Ho1Bi2Br1O4,1.366499999999999
Ho1Bi2Cl1O4,1.370999999999999
Ho1Bi2I1O4,1.391099999999999
Ho2Br6,2.8409
Ho4Cr4B16,0.167799999999999
Ho4Cr4O12,2.4964
Ho2Cr2O8,0.296799999999999
Ho2Cr2Te2O12,2.6338
Ho2Cu2Pb2S6,1.599599999999999
Ho4Cu4Pb4Se12,1.1844
Ho4Cu4S8,1.607299999999999
Ho1H1Se1,1.4981
Ho2I6,2.2181
Ho4Mn8O20,1.155199999999999
Ho6Mn6O18,0.376599999999999
Ho4Mo4Br4O16,1.8564
Ho2Mo2Cl2O8,2.7162
Ho1N1,0.087499999999999
Ho1Ni1Bi1,0.1941
Ho1Ni1Sb1,0.291999999999999
Ho2P4H10O20,2.1728
Ho2P10,0.1063
Ho8P8S8,0.293999999999999
Ho8P8S32,2.173
Ho1Pa1O4,2.4203
Ho4Pt4F28,2.3045
Ho4Rh4O12,0.9605999999999992
Ho2S2F2,1.299599999999999
Ho2S2I2,2.7205999999999992
Ho4S4O4,1.190999999999999
Ho4Sb4O16,2.3323
Ho4Se4F4,2.8304
Ho1Sn1Au1,0.022
Ho4Te8Cl4O20,2.9145000000000003
Ho2Tl2W4O16,2.9276
Ho1Tl1S2,1.4885000000000002
Ho1Tl1Se2,1.2588
Ho1Tl1Te2,0.7305
Ho2V2O8,2.9805
In24Ga8Ir4O30,1.4187
In8Bi16Pb16S52,1.200399999999999
In2Hg5Te8,0.0053
In4Hg12P6Cl18,2.1903
In4Hg2S8,0.3467
In2Hg1Se4,0.6337
In2Hg1Te4,0.5295000000000001
In4Pt4O14,2.196199999999999
In6Ga2Pt1O8,0.567199999999999
In6Ge2Pt1O9,1.3445
In12Te20Pb2,0.9293
In7Ge1Ir1O8,0.410299999999999
In1Bi2S4Cl1,1.5805
In4Hg24As16Cl28,1.4202
In4Hg24Sb16Br28,1.127
In2Hg14S12Cl10,1.4549
In1Sb3Pb4O13,1.5391
Ir8Se36Br24,1.519299999999999
Ir8Se36Cl24,1.5989
Ir4Pb4O14,0.152
Ir8S12,0.7821
Ir2Br6,1.5604
Ir4Cl12,1.9582
Ir2F6,1.141099999999999
Ir4F24,0.7714000000000001
Ir2I6,1.3846999999999992
Ir8S16,0.5371
Ir4S12Cl44,1.8369
Ir8Se16,0.0517
K20Th6P20S72,2.4587
K22In12Bi18,0.0282
K30Os14N38,0.062399999999999
K30Re14N38,0.0478
K30W14N38,1.5284
K8Re12S24,1.469599999999999
K8Re12Se24,1.136099999999999
K4Ag2Bi2,0.6783
K2Ag1Bi1Cl6,2.0583
K4As4Pt2,0.3521
K4As2Au2S8,0.9987999999999992
K4Au2I10O30,1.9927
K4Bi2I10O30,2.9708
K2Bi8Se13,0.8361000000000001
K4Bi2Au2,0.8705
K4Cd2Au8S8,2.032899999999999
K4Cd2Pb2,0.1648
K2Ce1Cu2S4,0.5588999999999991
K6Ce3N18O54,1.396799999999999
K8W24Br56,2.617099999999999
La3Al9Br36,2.6085000000000003
La2Au6F24,2.1698
La2Cd6As6,0.208299999999999
La2Er6S12,1.060299999999999
La2Ho6S12,1.0735
La2Lu6S12,1.0627
La2Sb6O18,1.486399999999999
La1Tl9Te6,0.8190000000000001
La2Tm6S12,1.0688
La2Y6S12,1.0838
La4Zn12As12,0.177399999999999
La2Zn6P6,0.2362
La10Bi8O27,1.4298
La40S56O4,1.9025999999999992
La20S38,0.442199999999999
La40Se56O4,1.523499999999999
La20Se38,0.772
La22Mn6C36,0.5335999999999991
La24C12I34,0.025599999999999
La12Mn3Al4Se28,0.063499999999999
La12Si4Sn1S28,1.4132
La17Al4Si9N33,1.8766999999999991
La40Ti22S88O12,0.285099999999999
La8Au20F84,1.7131
La4C2N6Cl2,1.8792
La2Co1Ni1O6,0.9971999999999992
La4Cr2O12,2.1672
La4Cu2Se8O24,0.6129
La8Cu4Bi4S20,1.0575
La8Cu4S16,1.6332
La8Ga4N12,1.8032
La2Ge1I2,0.3859
La8Ge4S20,1.9676
La8Hf4S20,1.0901
La8Hf4Se20,0.802999999999999
La4Hg2O8,2.254099999999999
La4I10,0.1718
La8In4Cu4S20,0.8944999999999991
La16Mg8Ni16H64,0.6837999999999991
La2Mg1Ni1O6,1.364099999999999
La2Mg1V1O6,1.7390999999999992
La16Mn8Se16O16,1.6501
La16Mn8Se16O16,1.2042
La2Mn2Se2O3,0.619799999999999
La8Mo4O24,2.792399999999999
La4Pd4O10,1.179
La4Pt4O14,0.8203
La4Re2O10,0.7077
La8S12,1.0358
La8Sb4S20Br4,1.8640999999999992
La16Se24,1.58
La2Se1O2,2.4067
La4Si4Pb2Se16,1.9379
La8Si16C4N24,2.335599999999999
La8Si4S20,2.3415
La8Si4Se4O16,2.2089
La4Sn4O14,2.664499999999999
La8Sn4S12O8,1.6742
La8Ta12S8O32,0.796899999999999
La8Ta12Se8O32,0.893799999999999
La16Te24,1.0395
La2Te1O2,2.028699999999999
La8Te4O24,2.962399999999999
La8Th4S20,1.4485
La8Th4Se20,1.118199999999999
La16Ti16O56,2.928499999999999
La2U1O6,1.739799999999999
La16Zn8Se16O16,2.4958
La8Zr4S20,1.0739
La8Zr4Se20,0.831199999999999
La6Ag2Ge2S14,1.9759
La6Ag2Sn2S14,1.952299999999999
La6Ag2Sn2Se14,1.300499999999999
La24B16N40,1.311299999999999
La6Be2Ga2S14,2.8155
La6Bi8Au6,0.379299999999999
La24C16I24,0.032899999999999
La6C2I10,0.192
La6Cu6Sb8,0.2826
La6Cu2Ge2S14,1.7961
La6Cu2Ge2Se14,1.1936
La12Cu4S12O8,0.967
La6Cu2Si2S14,1.5012999999999992
La6Cu2Si2Se14,1.5373
La6Cu2Sn2S14,1.869399999999999
La6Cu2Sn2Se14,1.2088
La12Ga20O48,2.8686
La12Ga4S20O4,1.196499999999999
La12In4S24,1.359499999999999
La12Lu4Se24,0.484499999999999
La6Mg2Al2S14,2.295199999999999
La12Mo4O28,0.0236
La12Nb4O28,2.9341
La6Pb6I26O80,2.9264
La12Pt4I12,0.1793
La6Re2O16,1.8714
La6Ru2I6,0.1048
La12S12N4,1.3375
La6Sb8Au6,0.5747999999999991
La6Sb2O6,0.7208999999999991
La12Sb4O28,2.812900000000001
La6Si4S16Br2,2.552
La6Si4S16Cl2,2.6154
La6Si4S16I2,2.507
La6Si12N22,2.9659
La6Si2Ag2S14,1.9663
La6Si2Ag2Se14,1.6531
La12Si4N16F4,1.9716
La12Te16Br4,0.0537
La6U2Cl6O12,1.577199999999999
La6U4O20,0.1081
La6V2H6O16,2.2922
La8As4S12O6,1.912199999999999
La16Au8O36,1.8922999999999992
La16C4I24N4,1.1841
La32In8Sb8S72,2.2196
La4Mn1Cu6S10,1.038699999999999
La8Mn2S12O2,2.3212
La4Pt1O7,0.9344
La8S6N4,1.1943
La8S6N2Cl6,2.9165
La8Se6N4,1.657699999999999
La4Se3O4,1.3261
La16Si8S12O28,2.5019
La16Si8Se12O28,2.2305
La16Te12N8,0.8813000000000001
La8Ti6S8O16,0.6467
La20Si12N36,1.965199999999999
La10Al4Ru6,0.0059
La20C8Br36,1.8211
La10C4Cl18,1.6562
La40C16I72,1.5131
La40Se48N8,1.588099999999999
La5Tl1Se8,1.300399999999999
La5Tl1Te8,1.211599999999999
La6Cd1Si2S14,1.946899999999999
La24Co4Cl44,0.631699999999999
La6Mg1Ge2S14,2.008599999999999
La6Mg1Si2S14,1.9699
La6Mn1Si2S14,1.1259
La6Os1I10,0.0879
La12S6O4F16,2.6035
La24S16Br4N12,1.4091
La12Sb8S6O24,1.957899999999999
La6Si2Ni1S14,0.9031
La6U1O12,1.972799999999999
La6Zn1Si2S14,1.9847
La28Ru12O72,0.405199999999999
La28Ru12,0.044599999999999
La28Sb44Br16,0.014199999999999
La32Sb8S60,1.935799999999999
La16Si10N28O2,2.3602
La18Al10S42,2.175
La18Al10Se42,1.694
La18In2Si6S42,1.9284
La18Sb32Br6,0.227799999999999
La4Ag4I16O48,2.6566
La1Ag1Mo2O8,2.5972
La1Ag1O2,2.826699999999999
La1Al1H6,2.476499999999999
La4As8,0.184
La2As2O6,2.692999999999999
La4As4S4,0.054
La4Au4O12,1.797699999999999
La6B6N12,2.172799999999999
La1Bi2Cl1O4,1.3154
La1Bi2I1O4,1.2225
La1Bi1Pd1,0.121699999999999
La2Br6,2.9266
La2Br6O14,2.1086
La2C2N4F2,2.682799999999999
La2Co2C4,0.042199999999999
La2Co2N6,0.4901
La2Co2O6,0.9497
La1Cr4Cu3O12,0.2062
La4Cr4H4O20,2.5457
La4Cr4O12,2.3706
La2Cr2Te2O12,2.758499999999999
La1Cu1O2,2.521599999999999
La4Cu4S8,1.234599999999999
La2Cu2S2O2,1.668499999999999
La4Cu4Se8,0.8712000000000001
La2Cu2Se2O2,1.5380999999999991
La4Cu4Te4S4,0.5769000000000001
La12Er12S36,1.135899999999999
La2Fe2O6,1.950899999999999
La4Fe4Te4O24,2.478199999999999
La12Ga12S36,2.2366
La8H8O8,2.431499999999999
La4H4Se8O28,2.6835
La8H8Se24O80,1.5911
La8Ho8S24,0.758799999999999
La2I6,2.0709
La4Lu4S12,2.232199999999999
La4Mg8H28,2.645
La4Mo4Br4O16,1.8558
La8Mo8Cl8O32,2.7474
La4Mo4N12,2.0751
La4Nb28O48,0.416299999999999
La2Nd2Co4O12,1.0783
La8P16,0.5563
La4P20,0.1139
La4P28,0.861699999999999
La8P8S8,0.339699999999999
La8P8S32,2.4374
La1Pa1O4,2.329699999999999
La2Pb12Br2O14,1.930499999999999
La2Pb12Cl2O14,2.1393
La2Rh2,0.081199999999999
La4Rh4O12,0.5939999999999991
La8S16,0.6312999999999991
La8S8Br8,2.790799999999999
La2S2F2,1.488099999999999
La8S8I8,2.1752
La8S8O8,1.522899999999999
La8Sb8S16Br16,2.1637
La4Sb4Se4,0.2904
La4Sb4Te4,0.0186
La4Sc4S12,1.6446
La4Se8,0.238699999999999
La4Se4Cl4,1.336
La2Se2F2,1.726099999999999
La8Si8P24,0.5185000000000001
La2Ta6O18,2.4693
La2Ta2N4O2,0.671299999999999
La4Ta4Ti4O24,2.918799999999999
La1Tb3Mo4O14,0.2778
La4Te4As4,0.126699999999999
La4Te4Cl4,0.8821000000000001
La2Ti12P18O72,2.421299999999999
La4Ti4I20O64,2.8734
La1Ti1Sb1O6,2.7433
La4Tl4P8S24,2.4808
La4Tl4P8Se24,1.777499999999999
La2Tl4P4S14,2.0622
La8Tl8Ge8Se32,1.461899999999999
La8Tm8S24,0.7541000000000001
La4V8I4O36,2.51
La4V4I20O64,2.3631
La2V2O8,2.8563
La2W2N6,1.2096
La8Y8S24,0.7897999999999991
La2Zn2As2O2,0.5760000000000001
La1Zn1Cu1P2,0.1859
La2Zn2P2O2,0.6563000000000001
Li4Nd16Ge16,0.055699999999999
Li4Pr16Ge16,0.0551
Li8Ca4Ta8O28,2.8142
Li2Ce1N2,1.203599999999999
Li2Ce1O3,2.3129
Li2Eu1Ge1S4,0.2021
Li6Eu3Si3O12,0.0433
Li2Ge1Pb1S4,2.2649
Li2H6Pt1,2.8838
Li2Hf1N2,1.9346
Li2Hg1O2,1.1767
Li2La1In1,0.111699999999999
Li4Pb2O6,1.044
Li2Pm1Ga1,0.163499999999999
Li4Pt2F12,2.4964
Li24Pt12O36,1.842
Li6Th3N6,2.6474
Li8Ti24Pb4O56,2.632399999999999
Li2U1Mo2O10,2.4115
Li2U3P4O20,2.1734
Li4U6P4O30,2.2567
Li4U6V4O30,2.2782
Li2U1Br6,0.3197
Li8U4O16,2.0439
Li12Au4O12,1.8503
Li6Au2S4,2.0985
Li3Bi1,0.342899999999999
Li24Bi8O24,2.4379
Li12Bi4O16,1.2236
Li12Gd4N24O72,2.6228
Li12Gd12Te8O48,2.8187
Li12La12Mo8O48,2.8495
Li3La1As2,0.5023
Li3La1Bi2,0.157899999999999
Li3La1P2,0.673999999999999
Li3La1Sb2,0.2496
Li3Nd1As2,0.0759
Li3U1O4,0.378
Li8H12Os2,2.691
Li4Np1O5,0.249
Li8Pb2O8,1.4367
Li16Re24S44,1.732799999999999
Li16Ta4N12,2.684
Li4U1O5,1.7311
Li10Au2O8,1.9587999999999992
Li5Bi1O5,1.3597
Li10H18Pt4,0.136
Li10La10Si8N24,2.5229
Li10Re2N8,2.8473
Li5Re1O6,2.158299999999999
Li40Tl8O32,1.6838000000000002
Li12Os2N8,0.085099999999999
Li6U1O6,2.1685
Li7Bi1O6,1.9268
Li8Bi2Pd1O10,0.9392
Li8Pt1O6,2.1611
Li18Nd4P10S40,2.6719
Li1Ac1Rh2,0.2955
Li1Ac1Te2,0.5567000000000001
Li1Au1S4O14,1.983299999999999
Li4Au4F16,2.0786
Li1Au1F6,1.8673
Li2Au2I8,0.751799999999999
Li2Au2O4,1.5259
Li4Au4S4,1.5804
Li2Bi2Pd4O8,0.445999999999999
Li2Bi6Br4O8,2.671399999999999
Li2Bi6Cl4O8,2.8283
Li2Bi6I4O8,1.905899999999999
Li1Bi1F6,2.5394
Li4Bi4O8,2.521699999999999
Li8Bi8O24,0.144299999999999
Li1Bi1S2,1.4793
Li2Ca6Os2O12,0.216899999999999
Li4Ca4Bi4,0.5790000000000001
Li2Ce2P8O24,0.3603
Li8Ce8F40,2.2896
Li1Dy1S2,1.934699999999999
Li1Dy1Se2,1.534799999999999
Li8Dy8Sn8,0.0044
Li1Er1S2,2.006599999999999
Li1Er1Se2,1.6151
Eu8Li8P8S32,0.121799999999999
Li2Gd2S4O16,2.6325000000000003
Li1Gd1Se2,1.1717
Li2Hf4N6,0.6376000000000001
Li1Ho1S2,1.9863
Li1Ho1Se2,1.5729000000000002
Li8Ho8Sn8,0.006499999999999
Li2La4Fe2O12,0.754699999999999
Li2La4Os2O12,0.3355
Li2La4Ru2O12,0.293899999999999
Li1La4Au1O8,1.6583
Li8Lu8Sn8,0.027999999999999
Li1Mg1Bi1,0.3587
Li2Nb6Bi8O28,2.7191
Li2Nd4Ru2O12,0.4246
Li8Nd8Sn8,0.0029
Li1Os1F6,1.2041
Li2P6W4O24,2.7689
Li2Pr4Ru2O12,0.301499999999999
Li8Pr8Sn8,0.005
Li2Sm4Os2O12,0.396099999999999
Li2Sm4Ru2O12,0.3999
Li1Sm1S2,1.9482
Li2Sm2Se4,1.5829
Li8Ta8N16,0.389199999999999
Li2Ta2S4,0.8540999999999991
Li2Tb4Ru2O12,0.0814
Li1Tb1S2,2.0554
Li1Tb1Se2,1.5013
Li1Tl2In1Cl6,2.8771
Li4Tm4O8,0.0001
Li2U8As6O40,1.8788
Li4U16P12O80,1.838899999999999
Li2U2As2O12,2.2759
Li8U8F40,0.147799999999999
Li1U1I6,0.663199999999999
Li2U2O6,0.4431
Li2Yb2P8O24,0.003599999999999
Lu2Al6C6,0.152899999999999
Lu1Nb6Cl18,0.091999999999999
Lu11Ni60C6,0.0259
Lu20Os5I24,0.016299999999999
Lu2C1Cl2,1.034399999999999
Lu4Cd2S8,1.2348
Lu4Mg2S8,1.9819
Lu4Mg2Se8,1.476999999999999
Lu4Mn4O14,1.112099999999999
Lu4Mn2Se8,0.7626000000000001
Lu8Pb4S16,2.302
Lu4Pt4O14,1.657299999999998
Lu4S6,2.5664
Lu8Se12,1.3355
Lu2Se1O2,2.0255
Lu2Si9B36C1,1.2246
Lu4Sn4O14,2.618299999999999
Lu8Te12,0.5877999999999991
Lu6Te3O18,2.9817
Lu8Zn4S16,2.3856
Lu24Ga16,0.026499999999999
Lu6Sb8Au6,0.5770999999999991
Lu16Cd4Ni4,0.052899999999999
Lu16Cd4Pt4,0.0145
Lu16In4Rh4,0.024799999999999
Lu16Mg4Ni4,0.0158
Lu5Re2O12,0.023799999999999
Lu12Al86V8,0.008799999999999
Lu6H40N8O49,2.9824
Lu6Te1O12,2.8127
Lu6U1O12,1.9232
Lu1Ag1O2,2.153
Lu12Au24F108,1.9441
Lu1Bi2Br1O4,1.3984
Lu1Bi2Cl1O4,1.461799999999999
Lu1Bi2I1O4,1.4425
Lu4Cr4B16,0.209799999999999
Lu4Cr4O12,2.5313
Lu2Cr2O8,0.284999999999999
Lu2Cu2Pb2S6,1.5137
Lu1Cu1S2,1.461999999999999
Lu6Ga6O18,2.8917
Lu6H18,0.0156
Lu1H1Se1,1.4615
Lu2I6,2.1804
Lu4Mn8O20,0.7359
Lu1N1,0.233099999999999
Lu4Nb24Cl52O12,0.947099999999999
Lu1Ni1Bi1,0.012699999999999
Lu1Ni1Sb1,0.214599999999999
Lu4P4S16,2.179
Lu1Pa1O4,2.4908
Lu4Pt4F28,2.2198
Lu4Rh4O12,1.0887
Lu2S2Br2,2.9943
Lu2S2F2,2.614099999999999
Lu4Sb4O16,2.3433
Lu4Ta24Br52O12,0.9255
Lu2Tl2W4O16,2.775
Lu1Tl1S2,1.3485
Lu1Tl1Se2,1.212899999999999
Lu1Tl1Te2,0.7908000000000001
Lu4V4O12,0.261099999999999
Lu2V2O8,2.9436
Mg2Au4F16,1.9810999999999992
Mg2Bi4O12,0.001999999999999
Mg1Pt3O6,0.2984
Mg4Pt2O8,1.077399999999999
Mg8Re4N12,0.253999999999999
Mg6Al36W4,0.0265
Mg6Re2H14,2.6637
Mg108W36N144,1.9513
Mg6Bi2P1N1,0.904799999999999
Mg2Au4S8O32,1.7625000000000002
Mg4H4Au8F44,1.6864
Mg2Ta4O12,2.8397
Mg4U4B8O28,2.191099999999999
Mg1U1O4,1.6809
Mg8V16Pb8O56,2.545199999999999
Mn2Bi4Se8,0.334999999999999
Mn1Pt3O6,0.073399999999999
Mn2Bi3Sb3O14,1.741699999999999
Mn8Bi4O20,0.416199999999999
Mn4Cr2Pb4O18,1.386099999999999
Mn6P6Pb2O24,0.8563000000000001
Mn4Bi3N1O15,1.123899999999999
Mn28Pb12O60,0.160199999999999
Mn4B4Pb4O16,0.910899999999999
Mn1Bi4S7,0.421799999999999
Mn4Bi4As4O20,1.9431999999999992
Mn4Bi4P4O20,2.779
Mn4Bi4S8Cl4,0.8539999999999991
Mn4Fe4Bi4O20,0.373199999999999
Mn1P6W3O24,1.1303
Mn1Pt1F6,1.8416
Mn2Sb4Pb10O22,1.4424
Mn1Tl2Sn1Te4,0.309899999999999
Mn4Tl4Cl12,1.9323
Mn1Tl1Cu1Se2,0.0054
Mn1Tl1F3,2.6304
Mn2Tl2F8,1.917
Mn2V2Bi2O10,1.9709
Mn2W2O8,2.356299999999999
Mo8P8Pb4O48,2.7571
Mo4Pb2Se4O22,2.476
Mo24Pb4Br56,2.2309
Mo24Pb4Cl56,2.5746
Mo24Pb4I56,1.929899999999999
Mo4P8Pb4O32,2.0672
Mo2Pb4O10,2.9278
Mo2Pb2O8,2.8876
Mo4Pb4Se4O24,2.3078
Na10Eu1Sn12,0.319999999999999
Na30W14N38,1.6379
Na17W19O57,0.9734
Na8Re12S24,1.511299999999999
Na8Re12Se24,1.281
Na4As2Au2,0.4175
Na4Bi2Au2,0.306999999999999
Na2Ce1F6,2.226
Na8Ce4O12,2.294599999999999
Na2H4Pt1,2.1188
Na2H6Pt1O6,2.6137
Na2Hf2O5,1.9603
Na8Hg12S16,1.6498
Na2Hg1O2,1.6474000000000002
Na16Hg8S16,2.1799
Na6Os3O12,0.2593
Na16Pb8O16,2.4667
Na8Pb4O12,1.2504
Na6Pt3F18,2.7424
Na2Pt1O2,1.463299999999999
Na8Pt4O12,1.5488
Na4Pt2S4,1.1433
Na4Pt2Se4,0.8690000000000001
Na8Re4O12,1.995499999999999
Na4Sb2Au2,0.361799999999999
Na4Te8W2O24,2.9425
Na2Tl1Sb1,0.3797
Na4U2W4O20,2.0214
Na4U4O14,1.5582
Na6U3Br18,0.0866