composition,band_gap
Tl4Ag4Se4,0.6000999999999991
Tl4Ag4Te4,0.6385000000000001
Tl8As40Pb8S72,1.573599999999999
Tl4As4H8F40,2.0555
Tl8As8S16,1.812399999999999
Tl16As16Se32,1.2565
Tl2Au2Cl8,1.761699999999999
Tl8Au8F48,1.527
Tl8B8O16,2.8659
Tl6B6S12,1.759
Tl2B2Se6,0.9154
Tl4Bi4Mo8O32,2.6848
Tl2Bi2P4S12,2.031199999999999
Tl4Bi4P8Se24,1.3847
Tl2Bi2W4O16,2.7891999999999992
Tl2Bi2F8,2.2336
Tl4Bi4P8S28,2.2214
Tl1Bi1S2,0.4949
Tl1Bi1Se2,0.232299999999999
Tl1Bi1Te2,0.468399999999999
Tl2Br2,2.1678
Tl8Br16,1.7922
Tl4Br12,2.035
Tl2Cl2,2.5181
Tl4Cl8,2.2468
Tl2Cl6,2.199799999999999
Tl4Cr4Mo8O32,2.8216
Tl1Cr2Fe1O8,1.858899999999999
Tl2Cr6O16,1.8267
Tl1Cr5S8,0.149499999999999
Tl4Cr4P8O28,2.8078000000000003
Tl4Cu4P12O36,0.9173
Tl4Cu4P4S12,1.9735
Tl4Cu4P4Se12,1.4934
Tl4F12,1.2702
Tl4Fe4Mo8O32,2.5843
Tl4Fe4S8O32,2.070999999999999
Tl4Fe4Br16,0.0359
Tl4Ga4I16,2.2717
Tl8Ga8S16,1.7885
Tl8Ga8Se16,1.3543999999999992
Tl2Ga2Te4,0.5555999999999991
Tl4Ge4Br12,2.256599999999999
Tl2Ge2Cl6,2.8898
Tl8Ge8S16,1.957899999999999
Tl2H8N2Cl8,2.4129
Tl2H12N6O24,1.8153
Tl4Hg12As8Cl12,0.8909
Tl4Hg12Sb8Br12,0.6466000000000001
Tl4Hg4Cl12,2.6710000000000003
Tl8Hg8F24,2.3394
Tl1I1,2.208599999999999
Tl4I12,1.6963
Tl1I1O3,2.763299999999999
Tl2In2P4Se12,1.4263
Tl2In8S10Cl2,1.530199999999999
Tl2In10S12,1.007299999999999
Tl2In10S14,0.7404000000000001
Tl4In4As8O28,2.992
Tl2In2Cl6,2.5745
Tl2In2S4,0.4748
Tl2In2Se4,0.7351000000000001
Tl8In8Si8S32,2.6785
Tl2In2Te4,0.540099999999999
Tl4Mo8P12O48,0.8793000000000001
Tl4Mo8P12O52,2.0776
Tl4Mo4P4O24,2.8562000000000003
Tl8N8O24,2.8457
Tl4P8H4O28,1.9415
Tl4P20,1.184899999999999
Tl2P2O8,0.7150999999999991
Tl4P4Pb4S16,2.0805
Tl2P2S6,1.7362000000000002
Tl2Pb16Br18O8,2.9557
Tl4Pb4F28,1.090099999999999
Tl2Pd4Se6,0.034699999999999
Tl2Pd6O8,1.056499999999999
Tl2Pt4S6,1.025599999999999
Tl2Pt4Se6,0.461999999999999
Tl2Pt6O8,1.4306
Tl4Re12S16Cl8,1.8577
Tl2Re12Se16Cl6,1.434699999999999
Tl2S2O8,1.9958
Tl2Sb2P4S12,2.145899999999999
Tl2Sb2P4Se12,1.553
Tl2Sb6F36,2.2817
Tl2Sb2Cl12,2.062999999999999
Tl4Sb4O12,2.436499999999999
Tl4Sb4S8,1.6594
Tl4Sb4Se8,0.8323
Tl1Sb1Te2,0.1268
Tl2Sb2W2O12,2.7695
Tl4Se4,0.197999999999999
Tl8Sn8F24,2.8207
Tl4Sn4F28,1.8333
Tl2Sn2I6,1.8624
Tl4Sn4P4S16,1.8272
Tl1V1S2O8,2.0345
Tl2V4Ag2O12,2.153299999999999
Tl2V4I6O26,1.848799999999999
Tl4V8Sb4O32,2.772
Tl2V6Se4O24,2.304599999999999
Tl2V6Cd8O24,2.3305
Tl2V6O16,2.002999999999999
Tl4V4Se4O20,2.4187
Tl4V4Te4O20,1.985399999999999
Tl8W24Br56,2.334
Tm2Al6C6,0.0528
Tm2Cu6S6,1.5452
Tm4Cu12Te12,0.390699999999999
Tm2C3N6,2.488299999999999
Tm4Cd2S8,1.1785
Tm4Mg2S8,2.0584
Tm4Mn4O14,0.996599999999999
Tm8Mo4O24,2.091
Tm4Pt4O14,1.4709
Tm16S24,2.3929
Tm8Se12,1.3417
Tm2Se1O2,2.1129
Tm2Si9B36C1,1.208899999999999
Tm4Sn4O14,2.6576
Tm8Te12,0.5788000000000001
Tm4Te2O4,0.442
Tm2Te1S2,1.788999999999999
Tm6Sb8Au6,0.5881000000000001
Tm8C14,0.3698
Tm16Cd4Pt4,0.0009
Tm12Al86V8,0.0147
Tm12Al86W8,0.0197
Tm6Re1O12,0.064599999999999
Tm16Ga6Co2,0.0034
Tm2Ag2P4Se12,1.7789
Tm8Ag8S16,1.6962000000000002
Tm4As4Se4,0.2713
Tm12Au24F108,1.8684
Tm1Bi2Br1O4,1.360199999999999
Tm1Bi2Cl1O4,1.4201
Tm1Bi2I1O4,1.425899999999999
Tm2Br6,2.9866
Tm4Cr4B16,0.196399999999999
Tm4Cr4O12,2.6809000000000003
Tm2Cr2O8,0.2142
Tm2Cr2Te2O12,2.6432
Tm2Cu2Pb2S6,1.5547
Tm4Cu4Pb4Se12,1.1223
Tm4Cu4S8,1.6576
Tm6H18,0.006099999999999
Tm2I6,2.2545
Tm4Mn8O20,1.221099999999999
Tm4Mo4Br4O16,1.9246
Tm2Mo2Cl2O8,2.6792
Tm1N1,0.152899999999999
Tm1Ni1Bi1,0.149099999999999
Tm1Ni1Sb1,0.255199999999999
Tm2P10,0.1259
Tm8P8S8,0.1576
Tm1Pa1O4,2.434
Tm4Rh4O12,0.9564999999999992
Tm4Sb4O16,2.350899999999999
Tm4Se4F4,1.8704
Tm2Tl2W4O16,2.731099999999999
Tm1Tl1S2,1.3817
Tm1Tl1Se2,1.1879
Tm1Tl1Te2,0.743599999999999
Tm2V2O8,2.9595
U4B16H64,0.074
U1Bi2O6,1.3499
U4Cl8O8,1.7799
U2I4O16,2.051699999999999
U1O2F2,2.1045
U8P32O96,0.0139
U2P8O24,1.1594
U8Pb24O48,1.611
U2Rh4O12,0.428899999999999
U22Pb6O72,1.6609999999999991
U6Ni6Bi8,0.0349
U6O16,0.045099999999999
U3Te5Pb8O32,1.8788
U6Tl2F26,0.1153
U12Rh4S30,0.006599999999999
U8Fe1Se17,0.245
U4Ag8Se8O32,1.4654
U2Ag2F12,0.9267
U4As4H36O40,2.4525
U2Br8,0.2115
U2Br10,0.5817
U2Cd2Mo8O32,2.0026
U1Cd1O4,1.9644
U3Cl18,1.5811000000000002
U4Cr4O16,0.338699999999999
U6F18,0.2155
U1F5,0.3866
U4F24,2.7943
U4H16Br8O16,1.6692
U4H16N8O40,2.2049
U4H24Br8O20,1.552
U2Hg6Te4Cl12,0.205099999999999
U8Hg32As16Cl48,0.3242
U2I8,0.265299999999999
U2Mo8Pb2O32,1.6815000000000002
U1N2,0.6927000000000001
U2Ni14B8O32,0.7519999999999991
U1O3,1.634999999999999
U2P4Pb4O20,1.766599999999999
U4P8O28,0.0929
U8P24H8O88,2.5051
U8P24O88,0.0494
U4Pb4Se8O32,1.6943
U4Pb4O16,1.5098
U8S16O72,2.2009
U4S4O24,1.9501
U4Sb12O8F68,2.4533
U4Se8O28,2.203
U4Se4O24,2.0194
U2Te2Pb4O16,1.745
U4Te8Pb4O32,1.9725
U1Te6O6F30,2.2523
U8Tl16Mo16O80,2.2304
U4Tl8Te8O32,1.822299999999999
U1Tl2O4,1.511299999999999
U2Tl8C6O22,1.8800999999999992
U8Tl8F40,0.2663
U1Tl1O3,0.2736
U4V8O32,2.1142
U4V8Pb4O36,2.1888
V8Hg16O32,1.238999999999999
V4Ge2Pb10O24,2.7314
V8Hg8O28,1.4424
V8Hg4O24,2.014299999999999
V8Ni8Pb4O32,2.8852
V4Pb28Cl8O34,2.3284
V8Pb8O28,2.926199999999999
V2Pb3O8,2.9795
V4Pb8Se12O42,2.3938
V16Pb32O72,2.912899999999999
V4Pb2O12,2.2667
V4Si2Pb10O24,2.6668000000000003
V12Bi24O64,2.2173
V6Bi2Pb6O24,2.6886
V6H2Pb10O26,2.8288
V3P6W1O24,1.1734
V6Pb10Cl2O24,2.808299999999999
V4Bi6Pb1O20,2.8891
V8Pb6O6F38,1.8835
V1Ag3Hg1O4,1.459699999999999
V4B4Pb16O32,2.9657
V8Bi8Pb16O48,2.7092
V2Bi2O8,2.2615
V2Bi2Pb2O10,2.9255
V2Cd4Bi2O12,2.248999999999999
V8Cd8Bi8O40,2.6632
V4Hg16P8O36,1.6181
V4P8Pb4O32,1.7906
V4P4Pb4O24,2.2898
V4Pb8Se12O40,2.375999999999999
V2Re4O18,1.8956
W2S16Cl12,0.6399
W8S16O64,2.8632
W2N1Cl8,0.158599999999999