composition,band_gap
Na8As8Se16,1.4318
Na6B54Se48,1.9515
Na2Be2As2,1.287399999999999
Na2Br2F8,2.9542
Na2C2O6,0.6623
Na2Ca4I2O12,2.6721999999999992
Na2Ca6Ru2O12,0.439
Na1Ca1As1,1.5818999999999992
Na4Cd4P4O16,2.9173
Na4Co4F12,2.9522
Na1Co1O2,2.245199999999999
Na2Cr2Ge4O12,2.8468
Na2Cr2P4S12,1.6163999999999992
Na1Cr1S2O8,2.7232000000000003
Na2Cr6O16,1.791
Na4Cr4F24,1.374
Na1Cr1O2,2.891
Na4Cr4P8O28,2.7876000000000003
Na1Cr1S2,0.9908999999999992
Na1Cr1Se2,0.780799999999999
Na2Cu2I6O18,0.056999999999999
Na4Cu4F12,0.080899999999999
Na4Cu4O4,1.2722
Na1Cu1O2,0.4997
Na2Cu2Se2,0.047699999999999
Na2Fe2Ge4O12,1.5846
Na4Fe4S8O32,2.0944
Na4Fe4Se8O24,2.278299999999999
Na2Fe2Se4O16,1.9104
Na4Fe4Si8O24,1.835799999999999
Na8Fe8Te16O48,2.1497
Na4Fe4Br16,1.0155
Na4Fe4Cl16,0.2252
Na2Fe2F6,2.2462
Na4Fe4F16,2.953999999999999
Na1Fe1O2,1.9918999999999991
Na2Fe2P4O14,2.5578000000000003
Na4Fe4P4O16,1.2607
Na16Ga48Se80,1.8605
Na4Ga12Te20,1.2076
Na4Ga4O8,2.8582
Na2Ga2Te4,1.5786
Na16Ge16,0.665199999999999
Na2Ge4N6,2.3402
Na4H8N4,1.9459
Na2H2O2,2.9879
Na2In2Ge4O12,2.3627
Na4In4As8O28,2.3567
Na4In4I16,2.478999999999999
Na1In1O2,1.9142
Na1In1S2,1.8377
Na1In1Se2,1.019199999999999
Na4In4Sn8,0.6527000000000001
Na2In2Te4,0.6416000000000001
Na1Li2Sb1,0.6796000000000001
Na1Li3H8N4,2.567599999999998
Na2Li2S2,2.264199999999999
Na4Li4Se4,2.4375
Na4Li4Te4,2.284
Na1Li1Zn1S2,1.8297999999999992
Na2Mg4S6O24,0.000399999999999
Na2Mg4V6O20,2.8353
Na2Mg2As2,0.9547999999999992
Na2Mg2Sb2,1.0359
Na4Mn8O16,0.4046
Na2Mn8As6O24,1.1152
Na4Mn4As4O16,2.0178
Na3Mn3Cr3F18,2.2911
Na4Mn4F12,2.7474
Na2Mn2F8,2.0519
Na3Mn3Fe3F18,2.4364
Na1Mn1I1O6,2.0015
Na1Mn1O2,1.222999999999999
Na4Mn4V4O16,2.3623
Na1Mo2P4O14,1.1965
Na4Mo8P8O36,1.807599999999999
Na2Mo12O34,0.5921999999999991
Na8Mo8As8O48,2.6992000000000003
Na1Mo1O2,2.380499999999999
Na8Mo8P8O48,2.7169
Na2N2O6,2.9451
Na2Nb2Cu4S8,1.7198
Na2Nb20O36,0.1761
Na1Nb13O33,1.6963
Na4Nb8As4O32,2.700199999999999
Na4Nb8P4O32,1.994399999999999
Na4Nb8P4S40,1.315599999999999
Na2Nb6Te8O32,2.1321
Na2Nb6O16,2.4842
Na4Nb4Cl24,2.2152
Na16Nb16N32,2.2814
Na2Nb2O4,1.378099999999999
Na2Nb2O6,2.5048
Na2Nb2S4,0.6250999999999991
Na2Nb2S12,1.6715
Na2Nb2Se4,0.5013999999999991
Na2Nb2Se4O14,2.9067
Na1Ni1I1O6,1.7121
Na1Ni1O2,0.4204
Na4O8,0.7083
Na8P8,0.8684000000000001
Na2P30,1.4966
Na1P4Ru2O14,0.0097
Na8P56,1.7429
Na2P2Pd2S8,1.160699999999999
Na4P4S12,1.988
Na1Rh1S2O8,1.2372
Na1Rh1O2,1.377399999999999
Na2Ru2N2,0.4093
Na4S4,1.2348
Na8S16,2.0185
Na8Sb8,0.6041000000000001
Na2Sb10O26,1.679599999999999
Na2Sb10O26,1.0634
Na2Sb2Cl12,2.0509
Na2Sb2O6,2.7012
Na2Sb2S4,0.8857
Na1Sb1Se2,0.6374999999999991
Na1Sb1Te2,0.658899999999999
Na1Sc1S2,1.678999999999999
Na4Se4,0.4942
Na8Se16,1.1815
Na8Si8,1.1286
Na16Sn16,0.342899999999999
Na2Sn2N2,0.917899999999999
Na2Sn2P2,0.5826
Na4Sr8Al4P12,0.3122
Na2Sr4I2O12,2.563
Na2Sr6Ru2O12,0.5002
Na2Sr6Sb2O12,2.9095
Na1Sr4B3N6,1.9666
Na3Sr3As3,0.806999999999999
Na4Sr4Cr4F24,2.0585
Na3Sr3P3,1.2357
Na4Sr4V4F24,2.5448
Na1Tc12Br25,0.965499999999999
Na12Te36,0.5092
Na2Ti4As6O24,2.378
Na2Ti4P6O24,2.4429
Na2Ti4Al10O24,2.7190000000000003
Na4Ti4As4O20,2.9036
Na1Ti1Cu3Se4,1.3708
Na4Ti4Cu4S12,0.155999999999999
Na4Ti4F16,0.201099999999999
Na8Ti8Se32,0.9939999999999992
Na2V2O4F4,2.1974
Na4V4S8O32,1.6873
Na4V4Si8O24,0.0673
Na2V6O16,1.9032
Na4V12P8O52,2.1674
Na4V4As4O20,1.5064000000000002
Na4V4F12,2.020699999999999
Na4V4N8,0.9301
Na4V4P8O28,2.1604
Na4V4P4O20,1.2667000000000002
Na1Y1Pd6O8,0.031099999999999
Na1Y1S2,2.263499999999999
Na1Y1Se2,1.8434
Na2Zn2As2,0.357599999999999
Na2Zn2P2,0.9102
Na1Zr2Cu1F11,0.8712000000000001
Na1Zr2Ni1F11,1.8738
Na1Zr2Pd1F11,1.331899999999999
Na1Zr2V1F11,2.163
Na2Zr2Cu2S6,0.543899999999999
Na4Zr4Cu4Se12,0.2968
Na4Zr4Cu4Te12,0.004899999999999
Nb4P8S32,1.2678
Nb2S4Br4,1.4999999999999991
Nb2S4Cl4,1.510199999999998
Nb2Se4Cl4,0.9933999999999992
Nb2Se4I4,0.959299999999999
Nb20Se80I6,0.1289
Nb12Br17F13,0.1221
Nb8Co4O24,1.7676
Nb6F15,0.1513
Nb8Fe4O24,2.0862
Nb8Ge4Te16,0.1734
Nb8Ni4O24,2.998199999999999
Nb28O70,1.7731
Nb8P4S40,1.5194
Nb4Pd6Se16,0.3082
Nb8S12O56,2.8957
Nb4Se34Cl24,1.3168
Nb4Se8O26,2.427
Nb4Se18,0.7746999999999991
Nb8Si4Te16,0.2534
Nb4Sn2O12,1.7399
Nb4Te6O22,2.5672
Nb8Te24I4,0.7160000000000001
Nb4Zn8S18O72,2.3571
Nb3Al1P6O24,2.7709
Nb6Br16,0.030699999999999
Nb12Cl20O8,0.8969
Nb12Cl28,0.9765
Nb6Cl16,0.1451
Nb12Cl4O28,2.0588
Nb3Co1P6O24,2.1295
Nb3Cr1P6O24,2.6167
Nb3Fe1P6O24,2.640599999999999
Nb9Ga3P18O72,1.7787000000000002
Nb6I16,0.0677
Nb24I8Cl48,1.0733
Nb9In3P18O72,1.8623999999999992
Nb6In4Cl18,0.9687
Nb6In4Cl18,1.0641
Nb3S1Br7,0.7444000000000001
Nb12S4I28,0.5787
Nb6Sb2P12O48,1.6892
Nb6Sb4Te10,0.844599999999999
Nb12Se40Br12,1.246999999999999
Nb12Se40Cl12,1.1681
Nb12Se48I4,0.0718
Nb6Se10Cl14,1.0202
Nb12Te16Cl4O60,2.3912
Nb6Te2Cl14,0.7027000000000001
Nb6Te2I14,0.5137
Nb8P4S42,1.192399999999999
Nb16Si4Te16,0.1692
Nb10P14O60,2.585
Nb10Zn2P18O72,2.3561
Nb24H4I44,0.213899999999999
Nb12H2S2I18,0.030499999999999
Nb24In4Cl60,0.8771
Nb28S8I76,0.4354
Nb9As1O25,2.2043
Nb9P1O25,2.1273
Nb9V1O25,2.0136
Nb2Ag2F12,2.8973
Nb4Al8Se8Cl32,1.9186
Nb2Al2Br16,1.5329000000000002
Nb1Al1Fe2,0.3207
Nb2As2P2Cl26,2.4397
Nb2B2O8,2.458899999999999
Nb2Br4O2,0.9038
Nb4Br12O4,1.9457
Nb2Br8,0.8728
Nb8Br40,1.565
Nb2Cl4O2,0.9093
Nb4Cl12O4,2.8075
Nb2Cl8,1.0797
Nb4Cl16F4,2.5076
Nb6Cl30,2.2227
Nb1Co1Sn1,0.970399999999999
Nb1Cu3Se2S2,1.4624
Nb1Cu3S4,1.6574
Nb1Cu3Se4,1.3604
Nb1Cu3Te4,0.9169
Nb2Fe2O8,1.8298
Nb1Fe1Sb1,0.513799999999999
Nb1Ga1Fe2,0.0905
Nb2I4O2,0.842599999999999
Nb2I6O2,0.8196000000000001
Nb4I16,0.4775
Nb2I10,0.94
Nb4I4O8,1.0412
Nb4N4O4,1.5556
Nb4Ni8B4O24,2.7318
Nb8O16,0.2824
Nb2O4F2,2.2079
Nb2P2,0.1162
Nb2P4N2Cl24,2.4276
Nb8P16S16Cl40,1.705
Nb8P16Se16Cl40,1.3286
Nb2P2Cl20,2.2683
Nb4P4Cl32O4,2.3872
Nb4P4O20,2.2614
Nb4S4I4,0.5914
Nb2Sb4,0.0047
Nb4Sb4O16,2.4311
Nb1Sb1Ru1,0.377299999999999
Nb4Se4Br12,0.736399999999999
Nb4Se4Cl12,0.7559
Nb4Se4I4,0.612699999999999
Nb4Se4I4,0.1055
Nb4Se4I12,0.627
Nb6Sn6P18O72,2.9196
Nb2Sn12O2F30,2.739899999999999
Nb8Te32I8,0.5477000000000001
Nb4Te4Br12,0.5947
Nb4Te4I12,0.457799999999999
Nb4V4O20,2.0888
Nb2Zn4N6,1.850099999999999
Ni4As8O16,2.7724
Ni1N2F14,1.9538
Ni4P8O24,1.486299999999999
Ni4Sb8O16,2.0339
Ni2Xe8F56,2.329399999999999
Ni8Xe16F128,0.5866
Ni34As12O64,2.484999999999999
Ni4Ge2O8,2.1356
Ni4P4O14,1.558699999999999
Ni6As4O16,2.1524
Ni6B14I2O26,2.4228
Ni6H4Se6O20,2.9775
Ni6Mo4Se2O22,2.364399999999999
Ni12Te8Mo4O40,2.9872
Ni10Se8Br4O24,2.8709
Ni20Sn4B8O40,2.9308
Ni7Te6Cl2O18,2.7053000000000003
Ni1H12Cl2O6,1.412599999999999
Ni4H8Se4O20,2.9949
Ni1O1,2.300899999999999
Ni1Rh1F6,0.015899999999999
Ni2S4,0.2404
Ni4Sb12Xe4F92,1.609299999999999
Ni2Sb12Ru2,0.068299999999999
Ni2Se2O8,2.1705
Ni4Te4O16,0.2761
O4F8,2.1241
P8H36C12Br12,2.5072
P4Pd2,0.341899999999999
P2Pd3S8,1.5779
P4Pd2O12,1.8521
P8Rh4,0.370499999999999
P16Rh8Cl8F48,1.440899999999999
P4Ru2,0.479199999999999
P8S20,2.5540000000000003
P8S28,2.1425
P3Br1Cl14,2.0731
P24N8Cl96,1.971099999999999
P18Rh6O54,1.691799999999999
P12Ru4,1.144599999999999
P12Se16I4,1.6621
P16N12Cl44,2.4896000000000003
P12Ru3,1.258600000000001
P32S24,2.8765
P16S12I8,2.2588
P16S28,2.7617000000000003
P16S36,2.7085
P16Se12Br8,2.014
P16Se12I8,2.0743
P4Br20,1.6183
P4Br28,1.2227
P3Cl15,1.7516
P2I4,1.926699999999999
P2I6,2.2746
P2I2Cl12,1.7907000000000002
P4I4Cl32,1.6941000000000002
P8Pd8S8,1.014299999999999
P8Pd8Se8,0.9677
P6Rh6O24,0.9836
P4Rh4S4,1.3994
P4Rh4Se4,1.0834
P16Se16,2.2667
P4Se4Cl36,2.2607
Pd2N4O12,1.3005
Pd1S2Cl6,1.7553
Pd1Se6Br2,1.094
Pd4Se32Cl8,1.3609
Pd2Se4Cl12,1.7002000000000002
Pd4Xe8F64,1.3427
Pd24Se16S8,0.3222
Pd8Br16,0.9792
Pd6Cl12,1.5592
Pd2F6,1.0487
Pd2F8,0.6178
Pd4I8,0.9294
Pd4S8,0.420999999999999
Pd16S16Cl16,0.9647
Pd2S2O8,0.962
Pd4Se8,0.4001
Pd2Se2O6,1.0589
Rb4Ge12As12,0.7805000000000001
Rb4Nb24Cl60,0.966499999999999
Rb2Sb4Se8,1.1191
Rb4Sn12As12,0.5979000000000001
Rb8Sn16Se32,1.2091
Rb12Sn2As6O1,0.3095
Rb56Si40O68,1.4904
Rb56Si24Ge16O68,1.342799999999999
Rb28Zn2Ge32,1.0649
Rb4Nb6Br18,1.118399999999999
Rb4Nb6Cl18,1.074899999999999
Rb16P24Se48,1.5965999999999991
Rb8Tc12Se24,0.899
Rb8Ag4As12Se24,1.4299
Rb4Ag4Ge2S8,1.907
Rb4Ag8S6,0.1922
Rb2Ag1As1Cl6,1.2354
Rb8Ag4Br12,2.6666
Rb8Ag4Cl12,2.9649
Rb8Ag4I12,2.78
Rb2Ag1Mo1F6,2.6738
Rb4Ag2P2S8,2.2636
Rb2Ag1Rh1F6,1.390499999999999
Rb2Ag1Sb1Cl6,1.6275
Rb8Ag4Sb4S16,1.519
Rb4As4Pd2,1.1458
Rb4As6,0.3968
Rb4B4Se14,1.7163
Rb8Ba4Nb8Se44,1.5628000000000002
Rb8Be8O12,2.455
Rb2Br1Cl6F1,0.9202999999999992
Rb6C3N6,2.8228
Rb4Cd2P4Se12,1.7916999999999992
Rb4Cd4O6,1.0967
Rb8Cd12S16,1.8924
Rb8Cd12Se16,1.5237
Rb8Cd12Te16,1.4415
Rb4Cd2I8,2.8476999999999992
Rb8Cd4O8,1.3109
Rb16Cd8Si8O32,2.4877
Rb8Co4Br16,0.7445
Rb8Co4Cl16,0.7331000000000001
Rb2Co1F6,1.179
Rb4Co2I8,0.557499999999999
Rb4Co2O6,0.575299999999999
Rb4Cr2Br4Cl4,0.3424
Rb8Cr8As8O36,2.2216
Rb4Cr4O14,2.765
Rb4Cr2Cl8,0.5668000000000001
Rb2Cr1F6,1.878099999999999
Rb4Cu2Br4Cl4,0.136599999999999
Rb8Cu8Sb8S20,1.1696
Rb4Cu6P8O28,0.607
Rb2Cu1Sb1Cl6,0.9004999999999991
Rb8Fe8As8O36,1.6391
Rb2Fe1F4,2.8943000000000003
Rb8Fe4F20,2.8688
Rb8Fe4O16,1.7002000000000002
Rb2Ga1Ag1F6,2.4254
Rb16Ga8As16,0.8679999999999991
Rb16Ga8Sb16,1.045
Rb8Ge8S20,2.4577
Rb8Ge8Se20,1.54
Rb12Ge24O54,2.862
Rb4Ge2S6,2.279899999999999
Rb4Ge2Se6,1.4969
Rb4H8Pd2,2.997
Rb16In16Sb24,0.9657999999999992
Rb2In4O7,1.4515999999999991
Rb2In1Ag1Cl6,1.293
Rb2In1Ag1F6,1.8555
Rb2Li1Co1F6,2.8411
Rb2Li1In1Cl6,2.8282
Rb8Li4Nb4S16,2.3505000000000003
Rb2Li1Rh1Cl6,1.6499
Rb2Li1Rh1F6,1.7225
Rb2Li1Sb1Cl6,2.9411
Rb16Li8Sn32,1.087899999999999
Rb4Li2V2S8,1.5836
Rb2Mg1Cl4,0.0009
Rb8Mg4O8,2.311099999999999
Rb4Mn2P4S12,0.2352
Rb4Mn6S8,0.387
Rb4Mn6Te8,0.2427
Rb2Mn1Cl4,1.2877
Rb2Mn1Cl6,1.2037
Rb2Mn1F5,1.5873
Rb4Mn2I8,2.091
Rb8Mn4O16,0.6351
Rb8Mn4V8O28,2.6013
Rb8Mo8P8O44,2.4189
Rb8Mo12P12O68,2.3576
Rb8Mo12S4O52,2.8832
Rb8Mo12Se12O64,2.6974
Rb4Mo6Se2O24,2.5069
Rb4Mo2As4O18,2.761
Rb8Mo4S16,1.5750000000000002
Rb8Mo4Se16,1.0392
Rb8Na12In4O16,1.9079
Rb4Na8Co4O10,1.3561
Rb2Na1Cr1Cl6,1.3631
Rb2Na1Cu1F6,0.7354
Rb4Na2Mn6F24,1.8271
Rb2Na1Mn1F6,1.678599999999999
Rb4Na2Mn2O8,1.811599999999999
Rb2Na1Pd1F6,0.5886
Rb2Na1Rh1F6,1.957
Rb2Na1Sc1I6,2.2079
Rb4Nb4P4S22,1.119099999999999
Rb4Nb6Cl14O10,2.2762
Rb4Nb2Ag2S8,2.1794
Rb4Nb2Ag2Se8,1.7584
Rb4Nb2Cu2S8,1.9749
Rb4Nb2Cu2Se8,1.639399999999999
Rb2Nb1F6,0.228299999999999
Rb2Ni3S4,0.8026000000000001
Rb4Ni6Se8,0.2661
Rb4Ni2As4,0.5596999999999991
Rb2Ni1F6,2.421599999999999
Rb2Ni1O2,2.8076
Rb4Ni2P4,0.6448
Rb2O1,0.4534
Rb2O2,1.76
Rb4P4Pd2,1.265299999999999
Rb4P6,0.7643999999999991
Rb16P8S24,2.8545
Rb4Pd2N8O24,1.8294
Rb2Pd3S4,1.184899999999999
Rb4Pd6Se8,0.882599999999999
Rb2Pd1Br6,0.547899999999999
Rb2Pd1Cl4,1.7485
Rb2Pd1Cl6,1.2868
Rb2Pd1F6,2.2306
Rb2Pd1Se2,0.889
Rb2S1,1.9632
Rb4S6,1.3433
Rb8S20,1.9539
Rb4Sb8O22,1.8332
Rb4Sb8S14,1.834
Rb8Sb32O52,2.5413
Rb2Sc1In1Cl6,2.6355
Rb2Se1,1.7968000000000002
Rb4Se6,0.681199999999999
Rb2Se1Cl6,2.6051
Rb8Si8Se20,2.3052
Rb4Si2As4,0.9554999999999992
Rb4Si2S6,2.8274
Rb2Sn1H12N6,2.5357000000000003
Rb16Sn16H24N8,1.157
Rb2Sn2O3,1.219599999999999
Rb4Sn4Se10,0.843299999999999
Rb4Sn6Sb4S20,1.8255
Rb8Sn12O28,1.450599999999999
Rb16Sn32S72,1.6693
Rb4Sn2As4,0.680999999999999
Rb2Sn1Br6,1.3166
Rb2Sn1Cl6,2.5452
Rb8Sn4O8,2.225199999999999
Rb4Sn2O6,2.121299999999999
Rb4Sn2Se6,1.6655
Rb4Sn2Te10,0.6872
Rb4Sr2V8O24,2.799699999999999
Rb2Tc1Cl6,1.2635
Rb2Tc1I6,0.544999999999999
Rb2Te1,1.8766
Rb2Te2Pd1,0.5711
Rb8Te12,0.6694999999999991
Rb2Te1Br6,2.101
Rb2Te1Cl6,2.6398
Rb4Te2I12,1.6225
Rb2Te1Se4,0.9114999999999992
Rb4Ti2Ag4S8,1.5994000000000002
Rb4Ti2Cu4S8,1.660299999999999
Rb2Ti1Te3O12,1.6461
Rb2Ti6O13,2.6235
Rb2Ti1Cl6,2.1471
Rb8V4P8O32,2.9669
Rb4V4Si16O42,2.913299999999999
Rb4V6O16,2.0914
Rb4V2Ag2S8,1.3323
Rb4V2Ag2Se8,1.0307
Rb4V2Cu2S8,1.2439
Rb2V1F6,0.7661
Rb2Y1Ag1F6,2.8977
Rb4Zn6O8,1.4122
Rb4Zn6S8,2.5887
Rb4Zn10As8,0.101599999999999
Rb16Zn8Ge8O32,2.8121
Rb16Zn8O16,1.792399999999999
Rb16Zr8S32,1.9971
Rb8Zr4Te12,0.498499999999999
Rb48Ag16O32,1.5162
Rb6Ag2Sn6Se16,1.3666
Rb6Al2O6,2.651399999999999
Rb12As44,1.553599999999999
Rb48As112,1.5816
Rb12As4Se16,1.3144
Rb6B2As4,1.2941
Rb6B2P4,1.5859
Rb12B4S12,2.5462
Rb12Cl4O4,1.223399999999999
Rb3Co1F6,2.9106
Rb12Cu20O16,1.580299999999999
Rb12Cu4O8,1.4422
Rb12Fe4O12,0.4919
Rb6Ga2O6,2.4181
Rb48Ga16P32,1.1643
Rb6Ge2P2Se14,1.5629
Rb6H24N10,1.7749
Rb18I6O6,0.633999999999999
Rb12I4O20,1.3488
Rb12I4O20,1.9552
Rb3In1I6O18,2.9749
Rb12In4O12,2.2405
Rb24In8P16,0.507099999999999
Rb6In2S6,2.2673
Rb6Mn2Br10,2.676999999999999
Rb12Mn4O12,1.3497
Rb6Mo24P2O80,2.2651
Rb6Mo4Cl18,0.1007
Rb3Na1Ru2O8,0.5102
Rb6Nb4As2Se22,1.181199999999999
Rb12Nb8S44,1.5349
Rb18Nb30P12O114,2.8452
Rb6Nb12S2Br34,0.5826
Rb3Nb1O8,2.3443
Rb12Nb4S16,2.4982
Rb12Ni8N28O84,2.9288
Rb12P44,1.9328
Rb24P24H40N8,2.135599999999999
Rb12P4S16,2.8787000000000003
Rb6Pd2F10,2.3374
Rb3Rh1F6,2.182899999999999
Rb6Sb2,0.0878
Rb12Sb8Br36,2.149
Rb12Sb8I36,1.9237
Rb12Sb20O56,1.433799999999999
Rb12Sb4S12,2.4154
Rb12Sb4S16,2.022799999999999
Rb12Sb4Se12,1.9999999999999991
Rb12Sb4Se16,1.444799999999999
Rb6Sc4Br18,2.929699999999999
Rb12Sn4P12Se44,0.8838
Rb12Ti12P20O80,2.599
Rb12Ti12Te44,0.0809
Rb3V5O14,2.2424
Rb12V4S16,1.7482000000000002
Rb6Zr4P10S36,1.8916
Rb6Zr12Be2Cl30,0.9403
Rb16Cu20Cl36,1.903299999999999
Rb4Cu1Si2O7,0.7041000000000001
Rb16Fe4O16,0.581499999999999
Rb8Ge2P8S24,2.1162
Rb16Ge4P16Se48,1.3687
Rb16Ge36H60N20,2.0492
Rb16Ge4O16,2.8624
Rb4I2O1,0.6163000000000001
Rb4In1Sb1Cl12,1.033599999999999
Rb8Mn2As4S16,1.082099999999999
Rb16Nb8S40O4,1.631099999999999
Rb8P42I2,1.3468
Rb8P4Se18,1.4612
Rb16Sb8O20,2.4371
Rb16Si4O16,2.7076
Rb8Sn2O6,2.083999999999999
Rb8Sn2O6,1.5106000000000002
Rb8Sn2O8,2.1626
Rb32Sn8S32,2.417
Rb24Sn6Sb36,1.062999999999999
Rb8Tc12S26,0.9722
Rb16Te32O92,1.198599999999999
Rb8Ti4P12Se50,1.1898
Rb8Ti6S28,1.242899999999999
Rb8V4S8O38,2.0238
Rb8Zr6Se28,1.4843
Rb8Zr6Te32,0.7044
Rb4Zr6C1Cl18,1.265199999999999
Rb10Co4O8,1.106599999999999
Rb40Fe8O32,1.872799999999999
Rb40Ga8O32,2.1824
Rb20Ge4P12,0.8487
Rb30Mo18O18F84,1.1405
Rb20Si4As12,0.7647
Rb10Si2H2O10,2.5914
Rb10Sn2P6Se30,1.0812
Rb10Tc6S14,1.136
Rb10Ti12Ag2Se54,0.5503
Rb10Ti2Sb14O44,1.6305
Rb12Al2Sb6,0.2825
Rb12Br8O2,1.5308000000000002
Rb12Cd2O8,1.291
Rb12Cl8O2,1.6658
Rb12Co4O14,1.152699999999999
Rb12Ge4O14,2.8402000000000003
Rb12In2P6S28,1.7000000000000002
Rb24Sn8S28,2.3521
Rb12Te4O18,0.923
Rb12V12P12O62,0.986699999999999
Rb28Na4Ge32,1.3412
Rb28Na4Si32,1.6935
Rb14Na2Zn4O12,1.5706
Rb14Nb2As8,0.767899999999999
Rb28V4Si4O32,2.4409
Rb16Cu12As16S38,1.2793
Rb16Fe4O14,1.608699999999999
Rb8Zr6B1Br20,0.089999999999999
Rb8Zr6Be1Br20,0.9719
Rb8Zr6Mn1Br20,0.1599
Rb18Fe14P20O80,2.397999999999999
Rb4Ag4N8O24,2.5282
Rb4Ag4P8O24,2.9292
Rb4Ag8As12Se24,1.201299999999999
Rb3Ag6Sb3S12,0.617799999999999
Rb2Ag6Se4,0.0612
Rb2Ag6Te4,0.2827
Rb6Ag30S18,0.7669
Rb4Ag4O4,1.4174
Rb2Ag2O4,1.0399
Rb4Ag4Se16,1.1614
Rb2Al2H16N8,2.6557
Rb8As8,0.5879000000000001
Rb1As4H3O12,2.7692
Rb8As8Se16,1.6541
Rb6B6S12,2.8318000000000003
Rb4B4S12,2.4085
Rb4B4Se12,1.6569
Rb2Ba8Sb6O2,0.9417
Rb4Ba4Mn4O16,1.8112
Rb4Ba4P4S16,2.2671
Rb4Ba4V4Se16,1.245
Rb4C4O8,2.941
Rb2Ca2H12N6,1.8986
Rb2Ca2As2,1.2985
Rb2Ca2Sb2,1.4979
Rb4Cd4Br12,2.7536
Rb4Cd4Ge4As8,0.7365
Rb2Co2Ni2F12,0.9368999999999992
Rb4Cr4S8O32,2.9234
Rb4Cr8Fe4O32,1.9996
Rb2Cr6O16,1.8319
Rb1Cr5S8,0.284699999999999
Rb1Cr5Se8,0.0152
Rb2Cr2Co2F12,2.1763
Rb4Cr4F20,0.178699999999999
Rb1Cr1F6,1.416399999999999
Rb1Cr1O2,2.7996
Rb4Cr4P8O28,2.9787
Rb1Cr1Se2,1.0185
Rb4Cu4P12O36,0.8580999999999991
Rb2Cu4Br6,1.6395
Rb4Cu4Cl12,0.185899999999999
Rb4Cu4O4,0.9215
Rb2Cu2O4,0.9136
Rb2Cu2Pd2Se10,0.9071
Rb4Cu4Se16,1.0105
Rb8Cu8Sn8S24,0.5314999999999991
Rb4F12,2.1173
Rb1Fe1Mo2O8,2.3779
Rb1Fe1S2O8,2.1651
Rb4Fe8F24,1.5418
Rb4Fe4Br16,1.0312
Rb4Fe4F16,2.4958
Rb4Fe4I16,0.5942000000000001
Rb4Fe4O8,1.5864
Rb4Fe4P8O28,2.5011
Rb1Ga1Se2O8,2.5128
Rb3Ga9,0.147199999999999
Rb4Ga12S20,2.8639
Rb4Ga4Ag4F24,0.090799999999999
Rb4Ga4H8,1.347299999999999
Rb2Ga2O4,2.4653
Rb8Ga8S16,2.8587
Rb8Ga8Sn8Se32,1.378099999999999
Rb32Ge32,1.004399999999999
Rb2Ge4N6,1.0881
Rb1Ge1I1O6,2.4295
O40Ge8Rb8Sb8,2.177699999999999
Rb1H1,2.9163
Rb2H4N2,1.9074
Rb4I12,1.6271
Rb1I1O3,2.8369
Rb2I2O8,2.493999999999999
Rb4In12O20,1.424
Rb3In9S15,1.1785
Rb4In4As8O28,2.5506
Rb4In4Br16,2.9272
Rb2In2Cl6,1.677299999999999
Rb6In6I24,2.6023
Rb8In8S16,2.4133
Rb8In8Se16,1.646199999999999
Rb2In2Te4,1.1111
Rb4Li4H16N8,2.6836
Rb2Li2Cr2O8,2.9916
Rb2Li2S2,2.745
Rb2Li2Se2,2.3089
Rb4Li4Zn8O12,2.0623
Rb1Li1Zn1S2,2.5255
Rb6Mg6H18,2.540499999999999
Rb4Mn16As12O48,1.722999999999999
Rb2Mn12As14O48,1.4179
Rb6Mn6Br18,1.2358
Rb6Mn6Cl18,1.3133
Rb1Mn1Cu1S2,0.1549
Rb1Mn1F3,2.943699999999999
Rb4Mn4F16,2.3279
Rb16Mn16N32,0.049599999999999
Rb4Mn4O16,2.137099999999999
Rb4Mn4P8O28,1.1481
Rb8Mn8V8O32,2.7318
Rb4Mo8P12O52,2.2787
Rb4Mo12Br28,2.2939
Rb4Mo12Cl28,2.5766
Rb4Mo4I4O24,2.6081
Rb4Mo4P8O28,2.8783000000000003
Rb4Mo4P4O24,2.8368
Rb3N3O6,2.078799999999999
Rb2Na4B2O6,2.9275
Rb8Na24Sn8O32,2.3483
Rb1Na7Co2O6,0.2889
Rb4Na32Ga12As24,0.4329
Rb4Na32Ga12P24,0.903999999999999
Rb1Na1Cd3O4,0.4397
Rb2Na2S2,2.2945
Rb2Nb4P2S20,1.5518
Rb2Nb4P2Se20,0.912999999999999
Rb4Nb12Te8O48,2.403299999999999
Rb2Nb2Cl12,2.2919
Rb16Nb16N32,1.8791
Rb4Nb4S8O36,2.7814
Rb2Nb2Te2O12,2.274499999999999
Rb4Nb4V8O32,2.5161
Rb2Ni2Br6,0.4723
Rb2Ni2Cl6,0.7089000000000001
Rb2P30,1.5046
Rb2P2S6,1.8376
Rb6P6Se18,1.122999999999999
Rb4P4Se24,1.8728999999999991
Rb1Ru1F6,1.1801
Rb6S6,1.5781
Rb8Sb8,0.7347
Rb2Sb4,0.267599999999999
Rb4Sb8P4O32,2.266299999999999
Rb4Sb12Se20,0.6848999999999991
Rb2Sb2Cl12,2.0641
Rb2Sb2Mo2O12,2.4282
Rb2Sb2O4,2.2483
Rb4Sb4S8,1.9492999999999991
Rb4Sb4Se8,1.5375
Rb1Sc5Te8,0.3281
Rb6Se6,0.9245
Rb32Si32,1.412499999999999
Rb16Sn16,0.877899999999999
Rb8Sn8As8O40,2.0723
Rb4Sn4Br12,2.5418000000000003
Rb2Sn2Cl6,2.3264
Rb4Sn4I12,2.0077
Rb2Sn2I2O12,2.1663
Rb16Sn16S64,1.4729
Rb2Tc2O8,2.9741
Rb4Te4,0.8245999999999991
Rb2Ti4P6O24,2.6058
Rb4Ti4Nb4O20,2.6967
Rb8Ti8P8O40,2.7021
Rb4Ti4P4S20,1.2097
Rb2V2Cu4S8,1.108099999999999
Rb2V2I4O16,2.7622
Rb4V4P8O32,2.1013
Rb2V4I6O26,1.7589
Rb4V8Sb4O32,2.7554
Rb4V8Se4O28,2.0481
Rb2V6Se4O24,2.3219
Rb2V6Cd8O24,2.3178
Rb2V6O16,2.0696
Rb1V5Se8,0.1421
Rb6V6Br18,0.607899999999999
Rb2V2Cl6,0.4023
Rb1V1F3,2.2325
Rb2V2N4,0.5831000000000001
Rb4V4O4F12,2.7001
Rb4V4P8O28,1.9638
Rb4V4Se8,0.0483
Rb1Y1S2,2.3166
Rb2Y2Te4,1.356299999999999
Rb1Zn4P3,0.194799999999999
Rb4Zr24B4Cl60,0.0026
Rb4Zr24C4Cl60,1.2072
Rb2Zr12Mn2Cl28,1.2076
Rb2Zr2Mn2F14,2.3454
Rh8Se36Br24,1.3799
Rh4S6,0.4203
Rh2Br6,1.2584
Rh2Cl6,1.521199999999999
Rh2F6,0.862599999999999
Rh4F24,0.5939999999999991
Rh2I6,1.0096
Rh12S12Cl60,1.5419
Ru2Cl2O4F12,0.562
Ru8Cl8F64,1.12
Ru2F8,0.1813
Ru8F40,0.710199999999999
Ru8O32,2.4654
Ru4S8,0.6683999999999991
Ru2S6Cl16,1.860199999999999
Ru4Se8,0.313799999999999
Ru4Xe4F28,0.903999999999999
S2I4O12,1.8938
S8I8O44,2.614099999999999
S6N4O28,1.405
S4I2O15,2.374399999999999
S10I4O36,2.738
S4Br4,2.2489
S8Br16O8,2.7573
S8Cl8,2.8804
S32Cl128,2.6189
S4I4Cl28,1.668499999999999
S8I8O24F8,1.9334
S2O4,2.8368
Sb2I4F12,0.5754
Sb1S24I3,2.5185
Sb8P12Se36,1.5032
Cl35F85Sb24,1.8188
Sb8Br4F60,2.982
Sb8Br4F68,0.1523
Sb16Cl40F32,2.3241
Sb8Cl4F68,0.327999999999999
Sb8Cl4O8F44,1.8316999999999992
Sb4H40Cl24O18,1.7417
Sb16I8Br16F88,1.708899999999999
Sb8O12,2.2239
Sb4O10,0.5057
Sb4Ru2,0.003499999999998
Sb8S76F48,1.9679
Sb8S12,1.2866
Sb8Se12,0.7564000000000001
Sb16Te16O72,2.6727
Sb2Te2Se1,0.130799999999999
Sb2Te3,0.1314
Sb2Te1Se2,0.486399999999999
Sb16Xe8Cl8F88,2.1165
Sb4Xe2F24,2.7297
Sb4Xe2F32,1.6479
Sb6Br4F32,0.062699999999999
Sb12Cl44F16,1.6636000000000002
Sb6Cl18O2F8,2.2549
Sb24I8O32,2.5352
Sb8Br4O10,2.376
Sb8Cl4O10,2.6466000000000003
Sb32Br8O44,2.770299999999999
Sb32Cl8O44,2.883
F156S16Sb36,1.7301000000000002
F156Se16Sb36,1.9538
Sb2As4Cl26,1.1627
Sb4As4O20,1.7582
Sb2As2P2Cl26,2.1081
Sb4As4Rh4,0.5387000000000001
Sb2Br2O4F12,1.9974
Sb2Br10F12,1.7545000000000002
Sb2Br10F12,1.7316
Sb4Br4F32,2.7201
Sb2Cl2O4F12,1.9238
Sb12Cl24F36,1.9134
Sb4Cl12F8,1.8283
Sb8Cl40,1.537399999999999
Sb4Cl4F40,2.3709
Sb2H72S8N22,2.222099999999999
Sb2H8N2Cl12,1.9394
Sb2H10Cl12O4,1.781299999999999
Sb4H28Br24O12,1.033
Sb4I4Cl8F24,1.9054
Sb2I6,2.1446
Sb1I3Cl8,1.2101
Sb3I15F18,0.9323
Sb16I16F80,0.5646
Sb4Kr4F28,2.4093
Sb8N8Cl64O8,1.7767
Sb4O8,2.028799999999999
Sb4P4Cl24O8,2.340799999999999
Sb8P16O56,2.2876
Sb4P4Cl32O4,1.8687
Sb2P2O10,2.5585
Sb12P12S48,2.196