composition,band_gap
Re12Se8Br20,1.726999999999999
Re12Se16Br4,1.4268
Re6Se8Cl2,1.1641
Re24Te32Cl40,1.2693
Re12Te32Cl12,0.9398
Re8Si14,0.0503
Re12Se14Br8,1.6949
Re24Te28Se32,0.9506
Re2Ag2O8,2.3102
Re8Bi24O64,2.7276
Re6Cl18,0.9667999999999992
Re4Cl12O8,1.862099999999999
Re8Cl32O8,0.6609
Re2F14,1.9773
Re1H8Br6N2,0.8133
Re1H8N2Cl6,1.0107
Re4Hg8O20,1.4261
Re4Hg4O16,2.6963
Re6I18,0.9469999999999992
Re8N8O24F48,2.6258
Re8N16O32F64,0.5304
Re8O8F32,0.9067
Re4P4Cl24O12,1.809499999999999
Re8P32,0.8553000000000001
Re4P4Cl32O4,0.031
Re12P12O72,2.1592
Re8S16,1.3202
Re2S4Cl2O18,2.396
Re2Sb2O2F20,2.0016
Re4Se8,1.1434
Re12Se12Cl12,1.5368
Re2Si4P6O30,2.1158
Re4Te4S4,0.075099999999999
Re4Te4S4Cl16,2.3274
Re4Te4Se4Cl16,2.3069
Rh4Pb8F28,1.7702
Sb4Au6F36,0.177999999999999
Sb2H4Au1F16,0.8936000000000001
Sb8Ir4,0.5099
Sb4Os2,0.344700000000001
Sb4Os2O4F28,1.3859
Sb2Pb1O6,1.926499999999999
Sb4W2O12,1.189099999999999
Sb12Au4Xe8F72,1.3822
Sb3Au2Xe2F19,0.8347
Sb12Au12F88,0.0795
Sb12Ir4,0.053699999999999
Sb3Rh1Pb4O13,0.265299999999999
Sb8Au2Xe8F44,0.377999999999999
Sb16Pb6S30,1.6402
Sb4Ir4S4,1.3963
Sb4Ir4Se4,1.147399999999999
Sb4Os4S4,1.119199999999999
Sb4Os4Se4,1.123400000000001
Sb2Pb2Br2O4,1.8655
Sb2Pb2Cl2O4,1.9127
Sb4Te4Ir4,0.6951
Sb4Te4Os4,0.857600000000001
Sc12Ir3Br16,0.058
Sc4Pt4O14,1.7836999999999992
Sc4Tl2Cu6S10,1.048899999999999
Sc6B4Ir10,0.0167
Sc8Os2Cl8,0.647999999999999
Sc114Pt26,0.1028
Sc40Ir8Cl72,0.218099999999999
Sc2Bi6Mo4O24,2.8937
Sc1Ni1Bi1,0.1869
Sc1Pa1O4,2.493500000000001
Sc1Sb3Pb4O13,1.612999999999999
Sc1Sb1Pt1,0.644099999999999
Sc1Sn1Au1,0.122499999999999
Sc3Ta9P18O72,2.4404
Sc1Tl1P2S7,1.970499999999999
Sc2Tl2S4,0.9331
Sc1Tl1Se2,0.6146
Sc1Tl1Te2,0.044599999999999
Si4Pb8S16,2.1705
Si4Pb8Se16,1.7989000000000002
Si2Hg6O7,1.5122
Si16Os8,0.6496999999999991
Si12Pb18O42,2.642199999999999
Si24Os16,0.8552999999999991
Si6P4Pt2,0.6067
Si4P4Os1,1.4341
Si40Ir24,0.9437999999999992
Si2Ag12Hg2Se12,0.1021
Si1Hg3S2F6,2.7984
Si4Os4,0.5122
Si1P1Au1,0.983499999999999
Si4Pt4Se4,0.787899999999999
Si8Sb8Pt8,0.2086
Si8Te8Pt8,0.3342
Sm2Er6S12,1.0887
Sm2Zn6P6,0.186399999999999
Sm20S38,0.7469999999999991
Sm20Se38,0.5225999999999991
Sm22In12Ge8,0.0221
Sm12Co6Pb1,0.006899999999999
Sm12Co6Sn1,0.0303
Sm12Sn1Ge4S28,1.477399999999999
Sm2C3N6,2.4814
Sm8Au20F84,1.630099999999999
Sm4Co2Ni2O12,0.512
Sm4Cu2Se8O24,0.52
Sm4Eu2S8,0.4663
Sm4Fe2Sb2O14,1.797099999999999
Sm8Hf4S20,1.1083
Sm4Hg2O8,2.2249
Sm4Mn4O14,0.975
Sm4Mn2Sb2O14,0.355999999999999
Sm6Mo12O45,2.5504
Sm8Mo4O24,2.2312
Sm4Nb4S14O60,0.117299999999999
Sm4Pt4O14,1.047599999999999
Sm8Re4O20,0.815299999999999
Sm8S12,0.7441
Sm2S1O2,2.9166
Sm8Se12,0.373699999999999
Sm2Se1O2,2.1358
Sm12Se6O6F12,2.781
Sm8Si4Se4O16,2.693
Sm4Sn4O14,2.7353
Sm8Te12,0.5334000000000001
Sm2Te1O2,1.4893
Sm2Ti2S2O5,0.779899999999999
Sm4V2Fe2O12,1.2635
Sm8Zr4S20,1.142799999999999
Sm8Zr4Se20,0.8425
Sm3Au1O6,1.7477
Sm6B2S6O6,1.5301
Sm6Bi8Au6,0.342799999999999
Sm6Cu6Sb8,0.246699999999999
Sm6Cu2Ge2S14,1.7739
Sm6Cu2Ge2Se14,1.1611999999999991
Sm6Cu2Si2S14,1.655699999999999
Sm6Cu2Si2Se14,1.437399999999999
Sm6Cu2Sn2S14,1.703599999999999
Sm6Fe2O12,1.4942
Sm24Ga16,0.0163
Sm12In4S24,1.2815
Sm12In4Se24,0.8380000000000001
Sm12Mo4O28,1.7639
Sm12Re4O32,1.7676
Sm6Sb2O14,2.6738
Sm12Sc8Fe12O48,2.1481
Sm6Si4S16Br2,2.614499999999999
Sm6Si4S16I2,2.5736
Sm6Si2Ag2S14,1.7935999999999992
Sm24Si8S48Cl8,2.6328
Sm16Au8O36,2.1008
Sm16Cd4Ni4,0.0985
Sm16Cd4Pd4,0.0943
Sm16Ga4Sb4S36,1.9465999999999992
Sm32In8Sb8S72,2.1754
Sm16Mg4Pt4,0.038499999999999
Sm4S3N2,1.3368
Sm4Se3O4,1.289099999999999
Sm16Si8S12O28,2.6038
Sm20Rh16,0.001
Sm6Cd1Ge2S14,2.0564
Sm6Cd1Si2S14,1.874099999999999
Sm6Ge3S14,1.238999999999999
Sm6Mg1Ge2S14,2.0667
Sm6Mn1Si2S14,1.061199999999999
Sm12Si8S34,2.476999999999999
Sm6U3O17,0.0632
Sm18Al2Si6S42,1.9825
Sm18Al10S42,2.4179
Sm18Al10Se42,1.643199999999998
Sm18In2Si6S42,1.921699999999999
Sm1Ag1O2,2.5292
Sm4Al12Pb8O32,2.9907
Sm4As4S4,0.025599999999999
Sm4As4Se4,0.5545
Sm6B6N12,2.3704
Sm1Bi2Br1O4,1.278299999999999
Sm1Bi2Cl1O4,1.217699999999999
Sm1Bi2I1O4,1.3061
Sm2Bi2O8,0.6012000000000001
Sm4Cr4B16,0.360699999999999
Sm4Cr4Ge4O20,2.669699999999999
Sm4Cr4O12,2.4802
Sm2Cr2Te2O12,2.694899999999999
Sm8Cu8Mo16O64,2.0075
Sm1Cu1O2,2.5136000000000003
Sm4Cu4O12,0.121799999999999
Sm4Cu4S8,1.1678
Sm4Cu4Se8,0.8167999999999991
Sm8Cu8Te8S8,0.0937
Sm4Fe4O12,1.545
Sm6H18,0.0037
Sm2I6,2.0143
Sm4In8Cl20,2.811499999999999
Sm4Lu4Se12,0.7935000000000001
Sm4Mn4O12,0.2744
Sm4Mo4Br4O16,2.0128
Sm2Mo2Cl2O8,2.8361
Sm4Nb24Cl52O12,0.955
Sm1Ni1Bi1,0.249299999999999
Sm2P10,0.009399999999999
Sm8P8S8,0.446399999999999
Sm8P8S32,2.2352
Sm2Pa2O8,2.758199999999999
Sm4Pt4F28,2.3817
Sm4Rh4O12,0.7331000000000001
Sm4S8,0.5285000000000001
Sm4S4Br4,2.9463
Sm2S2F2,1.229699999999999
Sm2S2I2,2.4395
Sm4Sb4O16,2.2974
Sm4Sc4S12,1.8487
Sm1Sn1Au1,0.0655
Sm4Ta24Br52O12,0.9535999999999992
Sm4Te4As4,0.3803
Sm2Tl2P4Se12,1.5815
Sm2Tl2W4O16,2.743999999999999
Sm4Tl8P8S28,2.1344
Sm1Tl1S2,1.6781
Sm1Tl1Se2,1.221899999999999
Sm1Tl1Te2,0.703599999999999
Sm4V8I4O36,2.4889
Sm4V4O12,1.5136
Sm1Zn1Cu1P2,0.0334
Sm2Zn2P2O2,1.3609
Sn1Bi2Te4,0.4268
Sn1Hg2Se4,0.2753
Sn4Pb8O16,2.0548
Sn15Os3O14,1.5083
Sn24Bi24O84,2.667
Sn2Sb2Pb4O13,1.5613
Sn4W6Cl28,0.7636000000000001
Sn12Ir8Se12,0.3647
Sn3Te1Pb4O13,1.3676
Sn1Bi4Te7,0.410999999999999
Sn4Hg24As16Br24,1.3707
Sn4Hg24P16Cl24,2.1321
Sn4Hg28As16I24,0.9496999999999992
Sn4Hg28P16Br24,1.6495000000000002
Sn1Hg1F6,2.431
Sn4Hg4P56,1.2778
Sn2Ir4Se10,0.4225
Sn2P14Au6,0.026499999999999
Sn4Pt4S4,0.8182
Sn4Pt4Se4,0.5741
Sn4Te4Pt4,0.089999999999999
Sr2As12Pt8,0.1287
Sr4Au8F48,1.193
Sr2Au4O8,1.2361
Sr2Bi4O8,2.567199999999999
Sr12Bi24S48,1.060499999999999
Sr4Dy8S16,1.787999999999999
Sr4Dy8Se16,1.357899999999999
Sr4Er8S16,1.8009
Sr4Er8Se16,1.4083
Sr4Ho8S16,1.801899999999999
Sr2La4S8,2.0278
Sr2La4Se8,1.9718
Sr4Lu8S16,1.8411
Sr4Lu8Se16,1.431
Sr1Mg2Bi2,0.3824
Sr2Nd4Se8,1.7524000000000002
Sr2P12Pt8,0.371099999999999
Sr3P6Ir6,0.4416
Sr2Pr4S8,2.257199999999999
Sr2Pr4Se8,1.9019
Sr4Tb8S16,1.7925
Sr4Tb8Se16,1.4432
Sr4Tm8S16,1.8199
Sr17Ta10S42,1.7384
Sr42Cd8Bi36,0.3477
Sr4Bi4O10,2.4829
Sr2Bi2Se3O2,1.3867
Sr2Bi1Au1,0.3936
Sr4Ca2U2O12,2.2089
Sr4Ce2O8,2.2243
Sr4Co2W2O12,2.0256
Sr4Dy2Bi2O12,1.884199999999999
Sr4Dy2Mo2O12,1.344
Sr4Dy2Ru2O12,0.2518
Sr4Er2Bi2O12,1.9513
Sr4Er2Mo2O12,1.2643
Sr4Fe2W2O12,1.768399999999999
Sr4Gd2Bi2O12,1.5339
Sr4Gd2Mo2O12,1.3501
Sr4Gd2Ru2O12,0.253699999999999
Sr2H6Os1,2.4354
Sr4H12Pt2,1.276
Sr4H16Pt2O16,2.5652
Sr2Hg1Pb1,0.120499999999999
Sr4Ho2Bi2O12,1.826799999999999
Sr4Ho2Mo2O12,1.331999999999999
Sr4In2Os2O12,0.472199999999999
Sr4La2Bi2O12,1.734099999999999
Sr8Li12Ta4N16,2.1968
Sr4Li2Re2N8,1.809899999999999
Sr2Li1Re1O6,1.8423999999999991
Sr4Lu2Bi2O12,1.9188
Sr4Lu2Ru2O12,0.1147
Sr4Mn2W2O12,1.8985999999999992
Sr4Nd2Bi2O12,1.7139000000000002
Sr4Ni2W2O12,2.9406
Sr4Pb2O8,1.3966
Sr4Pr2Bi2O12,1.745099999999999
Sr4Sm2Bi2O12,1.8088
Sr2Sn1Hg1,0.2717
Sr4Ta4O14,2.928
Sr8Ta4Co4O24,1.6183
Sr2Ta1Cr1O6,2.9169
Sr8Ta4Fe4O24,1.5015
Sr4Ta2Mn2O12,0.001599999999999
Sr8Ta4N12,2.465999999999999
Sr8Tb4Bi4O24,2.681499999999999
Sr4Tb2Ru2O12,0.187899999999999
Sr4Tl4O10,1.520699999999999
Sr4Tm2Bi2O12,1.9455
Sr8U4O20,2.1693
Sr4V6Bi6O28,2.9555
Sr8Y4Bi4O24,1.972399999999999
Sr4Y2Os2O12,0.173
Sr3Bi1N1,0.256899999999999
Sr6Cd2Pt2O12,2.0334
Sr6Dy2Rh2O12,2.1335
Sr6Er2Rh2O12,2.192
Sr6Gd2Rh2O12,1.9628
Sr6Ho2Rh2O12,2.160199999999999
Sr6Li2Bi2O12,2.1229
Sr6Mg2Pt2O12,2.6841
Sr3Pb1S4,2.2159
Sr6Sm2Rh2O12,2.0124
Sr12Ta4As12O4,1.495099999999999
Sr6Tb2Rh2O12,2.1142
Sr6U2Te8O28,1.9479
Sr6U22O72,1.7147
Sr6U2O12,2.213399999999999
Sr6Zn2Pt2O12,2.566099999999999
Sr4Bi2O1,0.602799999999999
Sr12Cu3Ir6O27,0.2241
Sr8Pt8Pb2O22,0.533899999999999
Sr8Pt2O12,2.1959
Sr4Ta1Fe1O8,1.773
Sr4Tl2C1O9,1.347299999999999
Sr16U8O36,0.1871
Sr5Au2O8,1.1214
Sr30Re12O72,2.0795
Sr20Re12Br4O60,2.3998
Sr20Re12Cl4O60,2.3602
Sr20Re12I4O60,0.7471999999999991
Sr5U5O18,0.0057
W8N4Cl36,1.7961
W20I64,0.866499999999999
W12C2Cl36,1.1557
W12Br24,2.4431
W1Br6,1.069899999999999
W12Cl24,2.8217
W2Cl8,0.264999999999999
W1Cl6,1.9169
W2F8,1.165
W12I24,1.957799999999999
W24I96,1.0913
W4N4Cl12,1.8151
W8O24,1.358499999999999
W4O4F12,2.4411
W2S4,1.2557
W8S72Cl32,1.255199999999999
W4S4Br16,1.2761
W2Se4,1.4465
Y10U4O27,1.7321
Y4Au10F42,1.651599999999999
Y4Pb4O14,0.998699999999999
Y4Pt4O14,1.421399999999999
Y12Re4O32,1.7313
Y6Sb8Au6,0.5752
Y3U2O10,0.146699999999999
Y16Mg4Pt4,0.0146
Y8Os2Br8,0.6995
Y40Ir8Br72,0.6534
Y15U6O36,0.1154
Y6Ir1I10,0.072
Y6Pt1I10,0.6705999999999991
Y12Ta8Al86,0.006
Y6U1O12,1.9558
Y9U5O28,0.024899999999999
Y4B16W4,0.5690000000000001
Y1Bi2Br1O4,1.339999999999999
Y1Bi2Cl1O4,1.3088
Y1Bi2I1O4,1.3836
Y4Cu4Pb4S12,1.595199999999999
Y1Ni1Bi1,0.2016
Y2Pa2O8,2.7864
Y4Pt4F28,2.1468
Y1Sb1Pt1,0.109799999999999
Y2Tl2P4Se12,1.507099999999999
Y2Tl2W4O16,2.937099999999999
Y4Tl8P8S28,2.1334
Y1Tl1S2,1.5298999999999991
Y1Tl1Se2,1.231399999999999
Y1Tl1Te2,0.7266
Y4W4N12,2.2798
Yb1Er2Se4,1.106699999999999
Yb1Ho2Se4,1.0812
Yb1Lu2Se4,1.142
Yb1Mg2Bi2,0.267399999999999
Yb1Tm2Se4,1.1118
Yb1Y2Se4,1.085899999999999
Yb1Zn2P2,0.7887000000000001
Yb8Ge4,0.022699999999999
Yb4Mo8O30,0.122299999999999
Yb4Pr2Dy2S12,1.271199999999999
Yb4S6,2.5394
Yb6N4,0.3418
Yb4Mn1S7,1.017899999999999
Yb1C2,1.0375
Yb2Ce2S6,0.0973
Yb2Cr2O8,2.3346
Yb1H2,0.0014
Yb4Pd4,0.117599999999999
Yb1S1,2.2246
Yb1Te1,1.4678
Zn2Au4F16,1.7174
Zn1Pt3O6,0.3047
Zn4Hg4O2F12,0.8682000000000001
Zn4Pt2O8,0.6309
Zn6W2N8,2.493299999999999
Zn4Bi8B8O28,2.6853
Zn2Bi12P4O30,2.7511
Zn4P56Pb4,1.1394
Zn1Pb1F6,1.6928
Zn1Pt1F6,2.0919
Zr5Tl20S20,1.5449000000000002
Zr5Tl20Se20,1.325399999999999
Zr2Sb2Pb4O13,1.8279
Zr6Ag2Hg6F40,0.751699999999999
Zr6Pb2O8F12,2.844999999999999
Zr6Sb8Pt6,0.7934000000000001
Zr3Te1Pb4O13,1.812599999999999
Zr3Tl2Cu2S8,0.7078000000000001
Zr3Tl2Cu2Se8,0.318199999999999
Zr1As1Ir1,0.269499999999999
Zr1Co1Bi1,0.9771999999999992
Zr2Hg6S4Br12,1.8586
Zr2Hg6S4Cl12,2.568699999999999
Zr2Hg6Se4Br12,1.936799999999999
Zr2Hg6Se4Cl12,2.5759
Zr8Hg32P16Cl48,2.1134
Zr1In1Au1,0.4412
Zr2Mn2Tl2F14,2.3108
Zr1Sn1Pt1,0.9627999999999992
Zr2Tl4Pb2S8,0.9546999999999992
Zr2Tl4Pb2Se8,0.6989999999999991
Zr2Tl4S6,0.8937
Zr2Tl2Cu2S6,0.6120999999999991
Zr2Tl2Cu2Se6,0.2271
Sr2Au4S8O32,1.6783
Sr2Bi2I2O4,2.864299999999999
Sr2Bi2N2O10,2.2375
Sr4Bi4O12,0.3106
Sr16Bi16Se48,0.7976000000000001
Sr8Ca16W8N32,2.6883
Sr4Ca4Pb4,0.267799999999999
Sr1Ce1N2,1.267999999999999
Sr4Gd4Cu4S12,1.1721
Sr4Gd4Cu4Se12,1.0135
Sr2Hf2N4,1.5456999999999992
Sr4Hf4S12,1.4955999999999992
Sr4Hg8Cl8O8,1.659399999999999
Sr1Hg1O2,2.1978
Sr2La2Co2O8,1.3403
Sr4La4Cr4O16,1.9756999999999991
Sr4La4Cu4S12,1.1616
Sr4La4V4O16,1.7713
Sr2Li4Ta4O14,2.2704
Sr4Li4Bi4,0.5558000000000001
Sr2Lu2Cu2S6,1.344199999999999
Sr2Lu2Cu2Se6,1.122699999999999
Sr2Nb4Bi4O18,2.5807
Sr4Nd4Cu4S12,1.2165
Sr4Np4P8O32,0.031499999999999
Sr4Pb4O12,0.7941
Sr4Pr4Cu4Se12,1.0231
Sr4Re4N12,1.9969
Sr2Ta4Bi4O18,2.514199999999999
Sr4Ta4N4O8,1.116899999999999
Sr4Th4P8S32,2.254699999999999
Sr4Th8Se20,1.48
Sr4Tl8O16,0.079299999999999
Sr4Tl4P4S16,2.0933
Sr2U2Mo8O32,2.093499999999999
Sr2U2Se4O16,1.981399999999999
Sr2U2I12,0.3156
Sr1U1O4,1.979499999999999
Sr1V4Bi6O20,2.891999999999999
Sr2W2N6,1.1076
Ta2I4Cl4,1.1785
Ta12Mo1O33,2.2586
Ta2Ag1F12,0.7160000000000001
Ta4Bi8O22,2.7997
Ta48Br120,0.0754
Ta4Cd4O14,2.0269
Ta48Cl120,0.056
Ta8Co4O24,2.004
Ta8Cr4O24,0.0861
Ta8Fe4O24,2.7333
Ta8Hg8F44,1.0553
Ta4Mn2P12O42,2.0819
Ta4Mn8O18,2.4602
Ta8Mn4O24,2.0483
Ta2Mo2O11,2.585
Ta4Ni6S16,0.5263999999999991
Ta4Ni6Se16,0.3317
Ta8Ni12Te20,0.021199999999999
Ta4O10,1.2267
Ta4Pb4O14,2.820099999999999
Ta8Pb4O24,2.7625
Ta4Pd6Se16,0.5261
Ta4Pt6S16,0.6797000000000001
Ta4Pt6Se16,0.6803
Ta4Se34Br24,1.396299999999999
Ta16Se64Br8,0.5301
Ta4Se16I2,0.2872
Ta4Sn2O12,2.1184
Ta4Sn2O12,2.2854
Ta2Tl3Cu3S8,1.8183
Ta4Tl8S22,1.523299999999999
Ta4Tl8Se22,1.1589
Ta9Al3P18O72,2.4752
Ta12Br28,0.9288999999999992
Ta9Ga3P18O72,2.5732
Ta12I28,0.9253
Ta9In3P18O72,1.786099999999999
Ta6In4Cl18,1.2972
Ta6N10,1.214099999999999
Ta9N3O18,2.1157
Ta3O7F1,2.2236
Ta3Sb1P6O24,2.2733
Ta12Se48I4,0.179699999999999
Ta12Te16Cl4O60,2.5158
Ta6Tl4Cl18,1.3454000000000002
Ta16P16S116,1.1671
Ta16Se32S4I32,1.0721
Ta16Se36I32,0.8800000000000001
Ta16Si4Te16,0.139199999999999
Ta12Pb8O38,1.745299999999999
Ta6Ti1Tl2O18,2.9431000000000003
Ta8Pb6O25,0.3699
Ta18Fe4S12,0.014899999999999
Ta9P1O25,2.7108
Ta9V1O25,2.5765
Ta4Ag4P16O52,2.143
Ta1Al1Fe2,0.3242
Ta2As4,0.013399999999999
Ta2As2P2Cl26,2.6098
Ta4Bi16Br4O32,1.344599999999999
Ta4Bi16Cl4O32,1.3395
Ta4Bi4O16,2.9755000000000003
Ta8Br40,2.0361
Ta6Cl30,2.8257
Ta2Cr6Cu4S16,0.1422
Ta2Cr2O8,2.459699999999999
Ta1Cu3Se2S2,1.7547
Ta1Cu3S4,1.9231
Ta1Cu3Se3S1,1.6491
Ta1Cu3Se4,1.597999999999999
Ta1Cu3Te4,1.140699999999999
Ta4Cu4S12,0.418
Ta1Ga1Fe2,0.0597
Ta2I4O2,0.8866
Ta8I40,1.1846
Ta4Mn4Nb4O24,2.569
Ta4N4O4,1.933799999999999
Ta1Nb1Cu6S8,1.7338
Ta2P4N2Cl24,2.8674
Ta8P16S16Cl40,2.3564
Ta8P16Se16Cl40,1.9078
Ta2P2Cl20,2.3387
Ta4P4O20,2.932
Ta8P8S48,0.8728
Ta4S4Cl28O4,2.8827
Ta4Sb4O16,2.9929
Ta1Sb1Ru1,0.665
Ta1Sn1Rh1,1.0594
Ta8Te32Cl32O8,1.162399999999999
Ta2Te8I2,0.5627000000000001
Ta2Te2Br18,2.1847
Ta2Ti2P6O24,2.8478
Ta4Tl8Ag4S16,2.0324
Ta1Tl3S4,2.532499999999999
Ta1Tl3Se4,2.2527
Ta2Tl2Cl12,2.7749
Ta8Tl8O24,0.9801
Ta4Tl4V8O32,2.7868
Ta1V1Cu6S8,1.1898
Ta2V2O8,1.8279
Ta4V4O20,2.171999999999999
Ta2Zn4N6,2.2992
Tb2Cu6S6,1.341
Tb2Zn6P6,0.2365
Tb22In12Ge8,0.0037
Tb22In12Si8,0.035099999999999
Tb4Au10F42,1.6596000000000002
Tb4Cl6,0.8523000000000001
Tb4Cr2Sb2O14,2.1144
Tb8Eu4Se16,0.1933
Tb8Hf4S20,1.146199999999999
Tb4Mn4O14,1.1024
Tb4Mn2Ni2O12,1.8813
Tb4Mn2Sb2O14,0.429599999999999
Tb8Mo4O24,2.2016
Tb4Pb4O14,1.1856
Tb4Pt4O14,1.357899999999999
Tb8S12,0.579299999999999
Tb2S1O2,2.9772
Tb8Se12,0.3411
Tb2Se1O2,2.1407
Tb12Se6O6F12,2.8112999999999992
Tb8Si4Se4O16,2.5839
Tb4Sn4O14,2.7218
Tb8Te12,0.5516999999999991
Tb2Te1O2,1.1715
Tb2Te1S2,1.8187
Tb2Ti2S2O5,0.7039000000000001
Tb4V2Fe2O12,1.3995
Tb8Zr4S20,1.134999999999999
Tb6Cu6Sb8,0.280799999999999
Tb6Cu2Ge2S14,1.8074
Tb6Cu2Ge2Se14,1.1262
Tb6Cu2Si2S14,1.733
Tb6Cu2Si2Se14,1.4882
Tb24Ga16,0.016799999999999
Tb12In4S24,1.3344
Tb12S12N4,1.409399999999999
Tb6Sb2O14,2.752
Tb12Te12N4,1.0929
Tb16Si12S48,2.4231
Tb16Cd4Ni4,0.0604
Tb16Cd4Pd4,0.028099999999999
Tb16Cd4Pt4,0.0556
Tb16Ga4Sb4S36,2.0116
Tb16Mg4Ni4,0.012199999999999
Tb4Se3N2,1.3453
Tb16Te12N8,1.4759
Tb20C8Br36,0.8155999999999991
Tb40Ir8Br72,0.6524999999999991
Tb40Rh8Br72,0.4516
Tb12Al86Mo8,0.0323
Tb6Co1Br10,0.002799999999999
Tb6Mg1Ge2S14,2.1789
Tb6Ni1Br10,0.4283
Tb12Ta8Al86,0.024399999999999
Tb7Co1I12,0.2763
Tb7Fe1I12,0.2273
Tb7Pt1I12,0.095999999999999
Tb7Rh1Br12,0.159
Tb7Rh1I12,0.1656
Tb16Ga6Co2,0.001199999999999
Tb24Se45,0.251599999999999
Tb24Se45,0.1278
Tb18Al10S42,2.4122
Tb8Ag8S16,1.7597
Tb2Ag2Te4,0.8994000000000001
Tb4As4S4,0.0285
Tb4As4S4,0.1845
Tb4As4Se4,0.075099999999999
Tb4B16Mo4,0.5646
Tb4B16W4,0.5609000000000001
Tb1Bi2Br1O4,1.2946
Tb1Bi2Cl1O4,1.3439
Tb1Bi2I1O4,1.326699999999999
Tb2Br6,2.8564
Tb4Co4O12,1.4208999999999992
Tb4Cr4B16,0.3781
Tb4Cr4O12,2.4854
Tb2Cr2O8,0.2967
Tb2Cr2Te2O12,2.6885
Tb2Cu2Pb2S6,1.6325
Tb4Cu4Pb4Se12,1.2303
Tb4Cu4S8,1.1832
Tb4Cu4Se8,0.8242
Tb4Ga8Ag4,0.1192
Tb2H4Br2,1.6956
Tb1H1Se1,1.5054999999999992
Tb2I6,2.0929
Tb4Mn8O20,1.1663
Tb4Mn4O12,0.4016
Tb4Mo4Br4O16,1.8562999999999992
Tb2Mo2Cl2O8,2.748
Tb1N1,0.013399999999999
Tb1Ni1Bi1,0.2301
Tb1Ni1Sb1,0.330999999999999
Tb8P8S8,0.3867
Tb8P8S32,2.1921
Tb2Pa2O8,2.786
Tb4Pt4F28,2.1737
Tb4Rh4O12,0.8749000000000001
Tb4S8,0.314799999999999
Tb4S4Br4,2.927699999999999
Tb2S2F2,1.2587
Tb4Sb4O16,2.3405
Tb1Sb1Pt1,0.0968
Tb4Sc4S12,1.7696
Tb2Si8B36C2,1.4466
Tb2Tl2P4Se12,1.529
Tb2Tl2W4O16,2.9699
Tb1Tl1S2,1.6253000000000002
Tb1Tl1Se2,1.2548
Tb1Tl1Te2,0.7241999999999991
Tb4V4O12,1.439599999999999
Tb2V2O8,2.9881
Tc8Bi24O64,2.049
Te4Pb6Br4O12,2.5124
Te4Pb6Cl4O12,2.5593999999999992
Te12Ir2Cl6,1.125099999999999
Te4As4Ir4,1.0847
Te2Au2Cl14,1.5508000000000002
Te4Au4I4,1.1214
Te1Pb1,0.8063
Te2Pb4O10,2.019599999999999
Te1Pb3Br2O4,1.9229999999999992
Te1Pb3Cl2O4,2.0877
Te4Pb20O32,2.2914
Th1As12Os4,0.4657
Th2B8Os8,0.242899999999999
Th1Cu2P2,0.119799999999999
Th1Fe4P12,0.5348
Th2In4Br12,2.7543
Th1P12Ru4,0.0754
Th4P8Ru8,0.136000000000001
Th2P4S12,2.448
Th2Te4I4,1.033399999999999
Th2As1N1O1,0.8689999999999991
Th4Au2F22,2.3273
Th4Cu2P6O24,2.9463
Th2P1N1O1,1.3129
Th8S20,1.7512999999999992
Th2S1N2,1.424
Th2Sb1N1O1,0.220699999999999
Th8Se20,0.5162
Th2Se1N2,1.359199999999999
Th2Te1N2,1.6182999999999992
Th6As8,0.2713
Th6Bi8,0.0921
Th3N4,1.4415
Th6P8,0.261699999999999
Th6Sb8,0.038199999999999
Th12Al86Mo8,0.034
Th12C2Br28,0.7041000000000001
Th6Co1Br15,0.6793
Th2Br8,2.6098
Th2Br2N2,2.639599999999999
Th4Cr4I8O40,2.7329
Th4I16,1.8452
Th2I2N2,2.6859
Th2N2Cl2,2.496299999999999
Th2N2F2,2.259
Th1Ni1Sn1,0.2675
Th4S8,1.033599999999999
Th2S2O2,1.114499999999999
Th1Sb1Rh1,0.7438
Th4Se8,0.6304999999999991
Th2Se6,1.2728
Th2Se2O2,0.769
Th1Sn1Pt1,0.6738000000000001
Th4Ta4N12,0.349499999999999
Th2Te6,0.6758999999999991
Th2Te2O2,0.242399999999999
Th2Tl2Cu2Se6,1.7357
Th1V2Pb1O8,2.432499999999999
Th4V16O48,2.6896
Ti4Tl16S16,2.5021
Ti4Tl16Se16,2.1386
Ti2Sb2Pb4O13,1.624699999999999
Ti4Tl6P10S36,1.3031
Ti3P6W1O24,2.5297
Ti12Tl12P20O80,2.5918
Ti4P6Pb1O24,2.7893
Ti12Tl10Ag2Se54,0.6789000000000001
Ti2Bi4O10,2.735999999999999
Ti1Ge1Pt1,0.8822000000000001
Ti1Nb6Tl2O18,2.5982000000000003
Ti4Nb4Tl4O20,2.4489
Ti2P4Pb2O16,2.5872
Ti2P6W2O24,2.234
Ti4Pb4S24O84,2.7366
Ti1Pb1O3,1.812999999999999
Ti1Sn1Pt1,0.7908000000000001
Ti1Tl2Te3O12,1.6058
Ti4Tl8O12,2.0959
Ti2Tl10F18,2.8612
Ti8Tl8As8O40,2.8120000000000003
Ti2Tl2Cu2Te6,0.017899999999999
Ti8Tl8P8O40,2.748
Ti2Tl2P2S10,1.1811
Tl2I6O18,2.1696
Tl4Cd6Sb6,0.040199999999999
Tl4I6O18,1.9192
Tl8Re12S24,1.4307
Tl8Re12Se24,1.1345
Tl8Se12O36,2.2182
Tl8Se12O48,1.4303
Tl4Au8S6,1.1385
Tl4B4Se14,1.2951
Tl8Bi4P8S28,2.1415
Tl6C3N6,1.892199999999999
Tl4C2O6,2.9095
Tl64Cl96,1.878899999999999
Tl4Co2I8,0.7544000000000001
Tl8Cr12O48,1.7286
Tl8Cu4C8O24,0.167999999999999
Tl2Cu3Se6O18,0.164099999999999
Tl8Ge8S20,2.162099999999999
Tl8Ge8Se20,1.484099999999999
Tl8Ge4Pb4S16,1.9211
Tl4Ge2S6,1.7699
Tl4Ge2Se6,1.153
Tl16Ge8Te24,0.468499999999999
Tl2Hg2Pd1Cl8,1.7216
Tl4Hg6S8,1.579699999999999
Tl4Hg6Se8,1.035699999999999
Tl2In1Ga1F6,2.3602
Tl8Mo8P8O44,2.296699999999999
Tl8Mo12P12O68,2.348799999999999
Tl4Mo6Se2O24,2.3865
Tl16Mo32O104,2.8189
Tl4O2,0.5717000000000001
Tl4P8Pd6O28,1.1747
Tl4P2Au2S8,1.299399999999999
Tl32P16S48,2.3951
Tl16P8Se24,1.5761
Tl2Pd1Cl4,1.0534
Tl4Pt4O14,0.6958000000000001
Tl4Pt10S12,0.9724
Tl2Pt1Cl6,1.7373999999999992
Tl4Pt2I12,0.5825
Tl18S9,0.7668
Tl8S20,1.667899999999999
Tl4Si2S6,2.360299999999999
Tl4Si2Se6,1.682799999999999
Tl2Sn1As2S6,0.9788999999999992
Tl4Sn4S6,0.8386
Tl2Sn1Cl6,2.4814
Tl8Sn4O12,1.1414
Tl16Sn8Se24,1.1133
Tl44Te22,0.8007000000000001
Tl8Te8O20,2.873
Tl4Te6,0.638899999999999
Tl4Te2Br12,2.1632
Tl2Te1Cl6,2.5741
Tl4Te2I12,1.684399999999999
Tl16Te8O24,1.9408
Tl4V6O16,2.1152
Tl4Zn2I8,2.9371
Tl12Ag12As8S24,1.2454
Tl12Ag12Sb8S24,1.3068
Tl12Ag4Te8,0.5357000000000001
Tl6As2O8,2.5842
Tl24As8S24,1.649299999999999
Tl12As4S16,1.769299999999999
Tl3As1Se3,0.8813999999999991
Tl12As4Se16,0.8449999999999991
Tl6B6S20,1.8863
Tl6B2O6,1.303
Tl6B2S6,1.4222
Tl6B2Se6,1.225199999999999
Tl24Bi24P32S128,2.0969
Tl6Bi2Cl12,2.8585000000000003
Tl6Cd4I14,1.8253
Tl6Co2Cl10,0.6109999999999991
Tl12Cr8P12S48,1.565
Tl3Fe1F6,2.6238
Tl3Ga9S13O2,2.2101
Tl12Ge4Te12,0.7147
Tl6P2O8,2.640899999999999
Tl12P4S16,2.2857
Tl12P4Se16,1.5581
Tl3Sb1S3,1.592
Tl6Sb2S8,1.5515999999999992
Tl12Sb4Se12,1.0148
Tl12Si4Te12,1.124
Tl3V5O14,2.1447
Tl3V1O4,2.5955
Tl3V1S4,1.9554
Tl3V1Se4,1.5636
Tl16Bi8S20,1.394499999999999
Tl8Cu2Te2O12,0.469799999999999
Tl8Ge2S8,1.9011
Tl16Ge4Se16,1.0793
Tl8Mo10O34,2.5639000000000003
Tl8O6,1.099199999999999
Tl16Pb4Se12,0.281299999999999
Tl8Si2S8,1.954499999999999
Tl16Si4Se16,1.473999999999999
Tl16Sn4S16,1.788199999999999
Tl32Sn8Se24,0.8678
Tl8Te6Pb2,0.103699999999999
Tl4V2O7,2.6082
Tl10Ag6P8S24,1.6724
Tl5Sb10As3S22,1.5698999999999992
Tl20Sb4O20,1.4702
Tl10Se4Br2,0.385399999999999
Tl20Se8Cl4,0.782899999999999
Tl10Se4I2,0.710199999999999
Tl12S2I8,1.7784
Tl12Si4O14,1.5876
Tl6Te1O6,1.563299999999999
Tl12V14P10O62,1.0497
Tl16Ge10O28,2.2673
Tl9Bi1Se6,0.7462999999999991
Tl9Bi1Te6,0.7500999999999991
Tl9Sb1Se6,0.8139000000000001
Tl9Sb1Te6,0.7303000000000001
Tl8Ag8P8Se24,1.299099999999999