composition,band_gap
Cs8Tl8O1,0.206299999999999
Cs1Ac1Te2,0.8775000000000001
Cs4Ag8Bi4S12,1.0635
Cs1Au1,1.023299999999999
Cs2Au2I8O24,1.934499999999999
Cs4Au4S8O32,1.5932
Cs2Au4F14,1.796199999999999
Cs1Au3S2,2.3501
Cs1Au3Se2,2.1741
Cs2Au2Br6,0.653
Cs2Au2Cl6,0.5386000000000001
Cs2Au2Cl8,1.8897
Cs2Au2F8,2.447199999999999
Cs2Au2I6,0.7337
Cs4Au4O4,1.3835
Cs2Au2O4,1.5219
Cs2Au2S2,1.8832
Cs2Au2Se2,1.7093
Cs2Au2Se6,1.0527
Cs16Bi16,0.2452
Cs2Bi2Mo4O16,2.8514
Cs4Bi12S20,1.427899999999999
Cs4Bi12Se20,1.4617
Cs1Bi1F6,2.8234
Cs2Bi2O4,2.318699999999999
Cs4Bi4S8,1.5773
Cs2Ca2Ta12Cl36,0.161599999999999
Cs2Ce2P8O24,0.198199999999999
Cs2Ce2Cd2Se6,0.018399999999999
Cs2Ce2Cu2S6,0.9341
Cs8Ce8F40,2.2534
Cs4Ce4Si4S16,0.0225
Cs4Ce4Si4Se16,0.2913
Cs2Dy4Ag6Te10,1.0728
Cs2Dy4Cu6Se10,1.1878
Cs2Dy2Cd2Se6,2.0718
Cs2Dy2Cd2Te6,1.5476
Cs2Dy2O4,2.835
Cs2Dy2S4,2.2244
Cs4Dy4Si4S16,2.931899999999999
Cs2Dy2Zn2Se6,2.154099999999999
Cs2Dy2Zn2Te6,1.3714
Cs2Er2Nb12Br36,0.650199999999999
Cs2Er2Ta12Br36,1.0084
Cs1Er10C4I18,0.2905
Cs2Er4Ag6Te10,1.1873
Cs4Er12Se20,1.6727999999999992
Cs1Er6C1I12,0.219999999999999
Cs2Er2Cd2Te6,1.5492
Cs2Er2Mn2Se6,0.514
Cs1Er1S2,2.1441
Cs4Er4Si4S16,2.957
Cs2Er2Ta12Cl36,1.3436
Cs2Er2Zn2Se6,2.1566
Cs2Er2Zn2Te6,1.386499999999999
Cs4Eu4As4S12,0.5358
Cs4Eu4Br12,0.9373999999999992
Cs2Eu2Ta12Cl36,0.109199999999999
Cs1Ga5Hg4Se12,0.8074999999999991
Cs4Gd4C8O24,2.7456
Cs2Gd4Ag6Te10,0.622599999999999
Cs4Gd8Cl28,2.621299999999999
Cs2Gd4Cu6Se10,0.893699999999999
Cs2Gd2Cd2Te6,0.8502999999999991
Cs2Gd2O4,2.4891
Cs1Gd1S2,1.8329
Cs4Gd4Si4S16,1.749
Cs2Gd2Te8,0.083899999999999
Cs2Gd2Zn2Te6,0.8742999999999991
Cs4Ge4Bi4S16,2.0049
Cs4Hf24C4Cl60,1.2179
Cs2Hg4Br10,1.9907
Cs1Hg5Cl11,2.8387
Cs9Hg9Cl27,2.0
Cs1Hg1F3,0.7228
Cs2Ho2Nb12Br36,0.9589
Cs2Ho4Ag6Te10,1.1763
Cs2Ho4Cu6Se10,1.291399999999999
Cs4Ho12Te20,0.843399999999999
Cs2Ho2Cd2Te6,1.546799999999999
Cs2Ho2Mn2Se6,0.5124000000000001
Cs2Ho2O4,2.8143
Cs2Ho2S4,2.2237
Cs4Ho4Si4S16,2.9111
Cs2Ho2Zn2Se6,2.1295
Cs2Ho2Zn2Te6,1.3765
Cs8In8Hg8S24,1.379
Cs4K8Au4O8,2.1843
Cs1K2Bi1,0.300999999999999
Cs8K32Tl8O32,1.5380999999999991
Cs2La2Nb12Br36,0.9812
Cs2La2Ta12Br36,1.3172
Cs2La4Cu2Se8,1.075399999999999
Cs4La24Fe4I40,0.119599999999999
Cs2La2Cd2Te6,1.730099999999999
Cs2La2Hg2Se6,1.4545
Cs2La2O4,2.9322
Cs1La1S2,2.5035
Cs2La2Zn2Te6,1.587399999999999
Cs2Lu2Nb12Br36,0.9749999999999992
Cs2Lu2Nb12Cl36,0.946299999999999
Cs2Lu2Ta12Br36,1.3127
Cs2Lu4Cu6Se10,1.2562
Cs4Lu28S44,2.031799999999999
Cs4Lu28Se44,1.510499999999999
Cs2Lu2Cd2Te6,1.5415
Cs2Lu2S4,2.2447
Cs4Na12Pb4O16,1.5078
Cs8Na40W16N48,1.8273
Cs2Nb4Bi2O14,2.4818
Cs2Nb2W2O12,2.8953
Cs2Nd4Ag6Te10,1.0241
Cs2Nd4Cu2Se8,0.8344
Cs2Nd2Cd2Te6,1.5147
Cs2Nd2Hg2Se6,1.353899999999999
Cs2Nd2O4,2.9366000000000003
Cs2Nd2S4,2.2185
Cs1Nd1Te2,1.291999999999999
Cs2Nd2Zn2Te6,1.3651
Cs2Np2Ag2S6,0.076299999999999
Cs4Np4Mo4O24,0.3369
Cs4Np4Mo4O28,1.3526
Cs2Os4O18,0.8738999999999991
Cs4Os4N4O12,2.9029
Cs4P4Pb4S16,2.3363
Cs4P4Pb4Se16,1.5613
Cs1Pa1O3,2.972999999999999
Cs4Pb4Br12,2.8808
Cs2Pb2Cl6,2.7365
Cs4Pb4I12,2.5181
Cs2Pr2Nb12Br36,0.9777999999999992
Cs2Pr4Ag6Te10,1.1305
Cs2Pr6C2I12,0.7084
Cs4Pr24Fe4I40,0.2107
Cs2Pr2Cd2Se6,1.9664
Cs2Pr2Cd2Te6,1.5231
Cs2Pr2Hg2Se6,1.3367
Cs2Pr2S4,2.228399999999999
Cs2Pr2Zn2Te6,1.3607
Cs2Pt4Se6,1.0495
Cs4Pu4P8S28,0.1506
Cs4Re4Cl16O8,1.4967
Cs4Re12S16Br8,1.8417
Cs4Re12Se16Br8,1.4231
Cs4Re24Se32I12,1.2321
Cs8Re8Br32,0.4053
Cs2Re2F16,1.7181000000000002
Cs4Re4O4F24,2.9741
Cs24Re24S48,1.2522
Cs2Sb2W2O12,0.1143
Cs4Si4Bi4S16,2.4826
Cs2Sm2Nb12Br36,0.9853
Cs2Sm4Ag6Te10,1.1579
Cs2Sm4Cu2Se8,0.9508
Cs2Sm2Cd2Se6,2.0217
Cs2Sm2Cd2Te6,1.5693
Cs4Sm4Ge4S16,2.4631
Cs4Sm4Ge4Se16,1.6665
Cs2Sm2Hg2Se6,1.3625
Cs2Sm2Mn2Se6,0.531199999999999
Cs2Sm2O4,2.9281
Cs1Sm1S2,2.1397
Cs4Sm4Si4S16,2.8414
Cs2Sm2Zn2Se6,2.042399999999999
Cs2Sm2Zn2Te6,1.4086
Cs1Sr2Ta3O10,2.0452
Cs2Sr2Ta12Cl36,0.1436
Cs4Ta4Cu8Te16,1.2436999999999991
Cs2Ta4P10O36,2.9928
Cs4Ta16P12S76,1.1991
Cs2Ta2Cl12,2.9077
Cs2Ta2Ge2S10,0.9885
Cs2Ta2I12,1.1787
Cs2Ta2N4,2.1446
Cs8Ta8P8S48,1.7818
Cs2Ta2S6,0.515099999999999
Cs4Ta4Se12,0.0868
Cs4Ta4V8O32,2.7305
Cs2Tb2Nb12Br36,0.9606999999999992
Cs2Tb4Ag6Se10,1.094399999999999
Cs2Tb4Ag6Te10,1.061999999999999
Cs2Tb4Cu6Se10,1.1974
Cs2Tb2Cd2Se6,2.0647
Cs2Tb2Cd2Te6,1.5409000000000002
Cs2Tb2Mn2Se6,0.5118
Cs2Tb2S4,2.205399999999999
Cs4Tb4Si4S16,2.8852
Cs2Tb2Zn2Se6,2.1028
Cs2Tb2Zn2Te6,1.3573
Cs2Te2Au2,1.416
Cs4Tl12O20,0.3555
Cs4Tl4Br16,1.9724
Cs2Tl2F6,2.1858
Cs4Tl4F16,2.7921
Cs2Tl2O2,1.3911
Cs8Tl8S16,1.269
Cs2Tm2Nb12Br36,0.9403999999999992
Cs2Tm4Cu6Se10,1.247299999999999
Cs2Tm2Cd2Te6,1.548
Cs2Tm2Mn2Se6,0.5038
Cs2Tm2S4,2.223999999999999
Cs4Tm4Si4S16,2.9693
Cs2Tm2Zn2Se6,2.171599999999999
Cs2Tm2Zn2Te6,1.383899999999999
Cs2U4F18,0.1779
Cs2U4O12,0.3349
Cs2U12F50,0.077999999999999
Cs4U4Cr4O24,0.6384999999999991
Cs1U1F6,0.9396999999999992
Cs4U4Nb4O24,2.1589
Cs4U4P12O44,2.3621
Cs2U2Sb2O12,1.6823
Cs8U8Te48,0.0423
Cs4U4V4O24,1.946
Cs4W12Br28,2.7127
Cs4W12Cl28,2.9160999999999992
Cs2Y2Hg2Se6,1.3946
Cs2Yb2Mn2Se6,1.2409
Cu2Pt4S8,0.1401
Cu4Hg4S2F12,0.4967
Cu2Hg1I4,0.5589000000000001
Cu4Pb2O4,0.629
Cu4Si2Hg2S8,0.401099999999999
Cu4Si2Hg2Se8,0.0161
Cu2W1Se4,1.275699999999999
Cu6Hg4Te12O32,0.215199999999999
Cu12Ge2W2S16,0.8154
Cu6Hg3Sb4S12,0.186099999999999
Cu2As2Pb2O8,1.8171
Cu4As4Pb4S12,0.7903000000000001
Cu2Bi4Se8O24,0.7250000000000001
Cu4Bi4Pt4S12,0.474899999999999
Cu4Bi4S8,0.464
Cu2Bi2Se2O2,0.3006
Cu4Hg4Se8O24,0.7590999999999991
Cu4P8Pb4O28,0.8003
Cu1Pb1F6,0.2011
Cu2Pt2F12,0.0814
Cu1Re2H8O12,1.3068
Cu8Re8O32,1.495299999999999
Cu4Te8Pb4O28,0.1653
Cu8W24Br56,2.0538
Cu8W24Cl56,2.4028
Dy2Cu6S6,1.3966
Dy2Zn6P6,0.280299999999999
Dy22In12Si8,0.0196
Dy4Au10F42,1.5532
Dy16C8I24,0.552099999999999
Dy4Cd2S8,1.0877
Dy4Cd2Se8,0.5809000000000001
Dy4Cr2Fe2O12,2.224199999999999
Dy4Cr2Sb2O14,1.894299999999999
Dy4Mg2Se8,1.287399999999999
Dy4Mn4O14,0.9041
Dy4Mn2Ni2O12,0.5364999999999991
Dy8Mo4O24,2.166
Dy4Pb4O14,1.1816
Dy4Pt4O14,1.5345
Dy8S12,0.593799999999999
Dy8Se12,0.3663
Dy2Se1O2,2.1479
Dy12Se6O6F12,2.8497999999999992
Dy2Si9B36C1,1.172199999999999
Dy4Sn4O14,2.7123
Dy8Te12,0.5488000000000001
Dy4Te10O26,2.985999999999999
Dy2Te1O2,0.8027999999999991
Dy2Te1S2,1.835799999999999
Dy8Zr4S20,1.1966
Dy6Cu6Sb8,0.2964
Dy6Cu2Ge2S14,1.8098
Dy6Cu2Ge2Se14,1.1277
Dy6Cu2Si2S14,1.800599999999999
Dy6Cu2Si2Se14,1.5196
Dy24Ga16,0.005699999999999
Dy6Ga2S12,2.061499999999999
Dy12S12N4,1.3945
Dy6Sb2O14,2.7960000000000003
Dy12Se12N4,1.170999999999999
Dy16Cd4Ni4,0.036799999999999
Dy16Cd4Pt4,0.025799999999999
Dy16Mg4Ni4,0.0126
Dy16Te12N8,1.8172
Dy4Te3S4,1.396599999999999
Dy20C8Br36,0.8479999999999991
Dy20C8I36,0.6995
Dy6Al2Si1S14,2.466999999999999
Dy12Al86Mo8,0.0383
Dy6H40N8O49,2.9558
Dy6Mn1Si2S14,0.986699999999999
Dy24Se44,0.5265000000000001
Dy12Ta8Al86,0.025
Dy14C4I24O2,0.027099999999999
Dy16Ga6Co2,0.0001
Dy16In6Co2,0.0019
Dy18Al10S42,2.4394
Dy8Ag8S16,1.7401
Dy4Ag4Se8,1.306
Dy2Ag2Te4,0.895799999999999
Dy4As4S4,0.0288
Dy4As4S4,0.4718
Dy4As4Se4,0.078199999999999
Dy4B16Mo4,0.281299999999999
Dy4B16W4,0.5661
Dy1Bi2Br1O4,1.329
Dy1Bi2Cl1O4,1.3739
K8Ce4P8O32,1.4179
K4Ce2Si12O30,2.187
K8Ce4Br20,0.1634
K8Ce4Cl20,0.3104
K2Ce1F6,2.1176
K4Ce2Ta10O30,0.0481
K2Cu1Bi1Cl6,1.161699999999999
K2Dy4Cu4S9,0.8801999999999991
K2Dy4Cu4Se9,0.7292999999999991
K8Eu4F20,0.1588
K8Eu4Si4Se20,0.339
K8Gd4B20H80,2.5191
K8Gd8Sb8Se36,0.9272
K8Gd4Cl20,2.5725
K8Gd4F20,0.242399999999999
K4Ge4Pb2S12,2.211299999999999
K2H6Pb1O6,2.1354
K8Hg4P8Se24,1.4002
K4Hg6Ge4S16,1.552099999999999
K4Hg6Ge4Se16,1.2695
K8Hg12S16,1.7408
K8Hg12Se16,1.1091
K4Hg12S14,1.3918
K8Hg4Cl16,2.3613
K2Hg1O2,2.0773
K8Hg4S8,2.1351
K2Ho4Cu4S9,0.8687
K4La4Sb4S18,1.1627
K8La4I20,2.7532
K8La4P8S28,2.3832
K8La4P8Se28,1.4904
K4La2Ta10O30,2.5845
K2Li14Pb3O14,2.018199999999999
K8Na8Ir4O16,0.3121
K8Na12Tl4O16,1.5642
K8Na4Tl4O12,1.261899999999999
K4Nd4Ir2O14,0.2913
K8Nd4P8S28,2.4772
K2Np1O4,0.2662
K12Os6O30,1.6618
K4P2Au2,0.9515
K4P2Au2S8,1.5691000000000002
K4Pb4O6,1.6906999999999992
K4Pb2Cl12,1.6065
K8Pb4O8,1.9147
K8Pb4O12,1.1376
K2Pt1,1.3146
K2Pt1Br6,1.1688
K2Pt1C2,0.9937999999999992
K2Pt1Cl4,1.819599999999999
K2Pt1Cl6,1.8566
K2Pt1F6,2.5717
K4Pt2I12,0.8659999999999991
K2Pt1S2,1.235599999999999
K2Pt1Se2,0.9345
K8Pu4Cl20,0.060799999999999
K2Pu1Cl6,1.1938
K2Pu1Cl6,0.3467
K8Rb4Bi4Se12,2.1311
K2Re1Br6,0.97
K2Re1Cl6,1.0776
K2Re1F6,1.6997
K8Re4F32,1.0873
K4Sb2Au2,1.0023
K16Sm16As16Se72,1.2038
K4Sm4Ir2O14,0.2757
K4Sm2P4S14,2.2591
K4Sn2Au4S8,1.6433
K4Sn4Hg6S16,1.7526000000000002
K2Sn1Hg1Se4,1.4785
K2Sn1Hg1Te4,0.622799999999999
K2Sr1Ta2O7,2.0748
K4Ta6Cl18,1.4543
K4Ta2Ag2S8,2.4916
K4Ta2Cu2Se8,2.0288
K8Te4W12O48,2.8707000000000003
K2Te2Pt1,0.7917000000000001
K8Th4P12Se36,1.7672999999999992
K16U8Mo16O80,2.3125
K8U4W8O40,2.0582
K4U4O14,1.648299999999999
K2U3I4O20,1.8921
K2U3Te2O14,1.8600999999999992
K8U4As8O36,2.4207
K8U4Br20,0.105799999999999
K8U4Cl20,0.119899999999999
K2U1O4,1.9773
K4W4O14,2.4361
K6W12O39,1.9062
K8W4S16,1.9435
K8W4Se16,1.319
K6Au6Br16,0.813399999999999
K3Au1O1,0.5612
K6Au2Se4,2.0524
K18Bi6,0.024699999999999
K3Bi1As6Se12,1.398699999999999
K12Bi4P8S32,2.1148
K12Bi4O12,2.9552
K6Bi2O8,1.1394
K12Bi4Se12,2.0759
K12Bi4Te12,1.2282
K6Ce2P4O16,0.0495
P8S32K12Ce4,0.003
K6Cu4Bi10S20,0.5758000000000001
K6Dy2As4S16,1.6543
K6Er14S24,1.8393
K12Gd4B8O24,2.6966
K6Gd2P4O16,1.2922
K6Gd6P8S32,1.498999999999999
K6Ge8Au2,0.8175999999999991
K6Hf8Ag4F46,0.6645
K12Ir4Cl24,1.9042
K12La4P8S32,2.478099999999999
K12La4P8Se32,1.4776999999999991
K12Na8Sn4Bi12,0.0109
K6Na2Re4O18,1.823099999999999
K6Nd2As4S16,1.6896
K12Nd4P8S32,2.4763
K6Nd6P8S32,2.115
K6Np2H12O16,1.543
K12Np4H8O24,1.1955
K12Np4O8F20,0.317899999999999
K6P4Au2Se16,1.195799999999999
K6Pu2H12O16,1.173099999999999
K3Sb2Au3,1.1046
K6Sm2As4S16,1.6795
K6Sn8Au2,0.3972
K6Ta4Ag6S16,2.2901
K6Ta4Ag6Se16,2.076
K6Ta4As2S22,1.8918
K6Ta4As2Se22,1.208699999999999
K6Ta4Cu6S16,2.313
K6Ta4Cu6Se16,1.9869999999999992
K12Ta8S44,1.792
K3Ta3B2O12,2.6703
K6Ta6Si4O26,2.9687
K12Ta4S16,2.8164
K6U6Si4O26,0.483599999999999
K12U4O8F20,2.713899999999999
K6V6Bi4O24,2.9426
K6W4O8F12,1.3463
K12W8N20,2.1512
K3W1F6,2.8446
K49Tl108,0.0499
K8Au12S10,1.5841999999999992
K8Ba4Sn2Bi8,0.098899999999999
K4Ca1U3O12,2.1025
K8Eu2P4S16,0.684299999999999
K8Hf2O8,2.8827
K4Hg1As2,0.6976000000000001
K4Hg1P2,0.9356
K4Ir1O4,0.428199999999999
K32Pb8O24,2.4381
K8Pb2O8,1.7002000000000002
K16Pt8S20O80,1.705099999999999
K8Sn42Hg4,0.194199999999999
K4Sr1U3O12,2.0683
K8Ta4S22,1.7377999999999991
K8U2P4O20,1.7849
K4U5Te2O21,1.769
K8U2C6O22,2.0892
K8U2O10,2.1712
K32U8S24O112,1.8491
K8Zn2Bi4,0.329099999999999
K20As12Pb12,0.843
K10As4Au2,0.339399999999999
K10Au2I4O4,1.882
K10Ba2Ta2P8,1.267599999999999
K10P4Au2,0.4815
K20Ta4Tl8As16,1.5206
K20Th4P12S48,1.9711999999999992
K20Tl12O4,0.1349
K40Tl8O32,1.7631
K20U4P12S48,0.3198
K10U4O8F18,2.6418
K12Hg2S8,1.7161
K12Hg2Se8,1.384599999999999
K6Na14Mg1Tl18,0.0253
K6Na14Tl18Cd1,0.001999999999999
K24Nb4Tl4As16,1.1811
K12Pb4O10,2.1249
K24Tl8Sb12,0.253099999999999
K24U8Cu48S60,0.555399999999999
K6U2Mo4O21,2.1736
K12U10As4O46,1.8012
K12U10V4O46,1.7963
K14Ta2As8,1.0407
K32Nb4As20Pb4,1.2069
K16Tl20Zn2,0.106399999999999
K18Bi2P8S32,2.1005
K18Ce2P8S32,0.342099999999999
K9U6Bi1O24,1.7081
K1Ac1Te2,0.8620999999999991
K4As4W8O36,2.3938
K1Au1I4O12,2.1181
K2Au2N8O24,2.0087
K2Au2S4O16,1.46
K4Au4Br16,0.809999999999999
K4Au4Cl16,1.4257
K2Au2F8,2.0753
K1Au1F6,2.1117
K4Au4I12,0.6459
K4Au4I16,0.2819
K2Au2O4,1.4264
K2Au2S2,2.1003
K4Au4S20,1.7779
K2Au2Se2,1.815999999999999
K2Au2Se4,0.8850000000000001
K2Ba8Bi6O2,0.7393000000000001
K16Bi16,0.4308
K2Bi2P4S12,2.2272
K4Bi4P8Se24,1.613999999999999
K2Bi2W4O16,2.7107
K8Bi48Br8O72,2.3328
K8Bi48I8O72,2.291299999999999
K4Bi4F24,2.7061
K2Bi2O4,1.8514
K12Bi12O36,0.4914
K4Bi4P8S28,2.3782
K1Bi1S2,1.4158
K2Ca2Bi2,0.8270000000000001
K4Ce4P16O48,0.3409
K2Ce2S4O16,0.339599999999999
K4Ce8Cu4Se24,0.083999999999999
K4Ce4F16,0.04
K2Ce2Si2S8,0.0743
K2Cu2Bi4S8,0.721399999999999
K1Dy1S2,2.3337
K2Er4Cu2Se8,0.944
K4Er4P8S28,2.6723
K1Er1S2,2.3727
K1Er1Te2,1.3304
K4Eu4F16,0.02
K2Eu2P2Se8,0.089599999999999
K2Gd2B8H32,2.4168
K2Gd2C4O12,2.7427
K1Gd1Nb6Cl18,0.386
K4Gd8Cl28,2.5883000000000003
K2Gd4Cu2Se8,0.7999
K1Gd1S2,1.8308
K1Gd1Te2,0.8263
K8Ge8Au8S24,2.220399999999999
K4Ge4Bi4S16,1.804799999999999
K4Hf24C4Cl60,1.1511
K4Hf4Cu4F28,0.4453
K2Hf2Cu2S6,0.757
K1Hg5Cl11,2.6479
K4Hg4F12,0.6082000000000001
K2Ho4Cu2S8,1.036
K2Ho4Cu2Se8,0.9224
K1Ho1S2,2.3505000000000003
K4La4P8S24,2.6738
K4La4P8Se24,1.974699999999999
K4La20C8Cl40,1.954099999999999
K2La10V4O26,2.9836
K4La4Cr8O32,2.669699999999999
K2La2Ge2S8,2.303599999999999
K2La2Ge2Se8,1.621999999999999
K1La1S2,2.7005
K2La2Si2S8,2.8686
K2La2Si2Se8,2.208099999999999
K1La1Te2,1.701299999999999
K2La2Ti2O8,2.3399
K2Li6Pb2O8,1.693099999999999
K1Li6Bi1O6,1.4216
K4Li4Yb4F20,0.0234
K1Lu1Nb6Cl18,1.0824
K1Lu1S2,2.4307
K2Mg2Bi2,0.385499999999999
K2Na4Au2O4,2.0479
K8Na16W8N24,2.029499999999999
K4Na28Pb8O28,0.925199999999999
K2Nd4Cu2S8,0.9129
K4Nd12Te32,0.439899999999999
K2Nd2Ge2S8,2.367099999999999
K1Nd1S2,2.2595
K1Nd1Te2,1.2648
K2Nd2Te8,0.157099999999999
K4Nd4Ti4O16,2.360699999999999
K4Np8F36,0.2835
K2Np2N6O22,0.098199999999999
K1Os1F6,1.3498
K4P8Au20S32,1.6577000000000002
K2P2Au2Se6,0.993699999999999
K4P4Pb4S16,2.316599999999999
K16Pb16,0.5708000000000001
K8Pb8O16,1.4532
K4Pr4P8Se24,2.0113
K4Pr12Te32,0.4675
K2Pr10C4Cl20,2.1273
K2Pr10C4Cl20,2.2493
K4Pr24Os4I40,0.002499999999999
K2Pr2Ge2Se8,1.6332
K1Pr1S2,2.2688
K2Pr2Si2Se8,2.1773
K1Pr1Te2,1.279999999999999
K2Pr2Te8,0.176299999999999
K2Pt4S6,1.273899999999999
K2Pt4Se6,0.9439
K4Pu8F36,0.308899999999999
K2Pu2C2O10,0.434299999999999
K4Pu4P8S28,0.0066
K2Sb2W2O12,2.8241
K4Si4Bi4S16,2.0549
K2Sm4Cu2S8,1.013
K4Sm8Sb12Se32,0.6252999999999991
K2Sm2Ge2Se8,1.6626
K4Sm4P8S28,2.6804
K1Sm1S2,2.2759
K1Sm1Se2,1.8906
K1Sm1Te2,1.2623
K8Sn8Au8Se24,1.4172999999999991
K2Ta2Ag4Se8,1.7478
K4Ta12Te8O48,2.9431000000000003
K2Ta2Cl12,2.8634
K16Ta16N32,2.7614
K1Ta1O3,2.0995
K16Ta16P16S96,1.7675
K8Ta8S40,1.3034
K20Ta20Te60,0.492199999999999
K3Ta3W6O27,1.4278
K2Tb4Cu2S8,0.9798999999999992
K4Tb4Cr8O32,2.7243
K2Tb2Ge2S8,2.459799999999999
K1Tb1S2,2.3136
K4Th4Sb8Se24,0.6898000000000001
K2Th2Cu2S6,2.0422
K1Tl1S2O8,2.0234
K1Tl2Mo1F6,2.4401
K4Tl4Br16,1.8089
K2Tl2Cl8,2.3241
K6Tl6F24,2.3226
K2Tl2O2,1.1638
K1Tl1O2,0.8820000000000001
K2Tl2Se4,1.3576
K2Tm2C4O12,9.9999999999989e-05
K2Tm4Cu6Se10,1.048999999999999
K4U8F36,0.1714
K4U8P12O56,2.346199999999999
K4U4Cr4O24,1.6413
K8U8I24O88,2.2768
K8U8N24O88,2.4051
K8U8Nb8O48,2.0161
K1U1O3,0.4454
K8U8P24O88,2.323
K4U4Si8O28,0.5523
K4U4V4O24,1.9806
K2V6Pb8O24,2.9891
Dy1Bi2I1O4,1.3667999999999991
Dy4Cr4B16,0.3833
Dy4Cr4O12,2.4922
Dy2Cr2O8,0.297999999999999
Dy2Cr2Te2O12,2.7169
Dy2Cu2Pb2S6,1.5979
Dy4Cu4Pb4Se12,1.208699999999999
Dy4Cu4S8,1.6186999999999991
Dy1Cu1Se2,1.066799999999999
Dy6H18,0.004799999999999
Dy1H1Se1,1.487699999999999
Dy2I6,2.1725
Dy4Mn8O20,1.0799
Dy4Mn4Fe4O20,1.146
Dy4Mo4Br4O16,1.8414
Dy2Mo2Cl2O8,2.7283
Dy1N1,0.043099999999999
Dy1Ni1Bi1,0.2084
Dy1Ni1Sb1,0.3123
Dy2P10,0.0937
Dy8P8S8,0.3391
Dy8P8S32,2.159699999999999
Dy1Pa1O4,2.400399999999999
Dy4Pt4F28,2.3154
Dy4Rh4O12,0.8883000000000001
Dy2S2Br2,2.8776
Dy4S4Cl4,2.7618
Dy2S2I2,2.7811
Dy4Sb4O16,2.3553
Dy1Sb1Pd1,0.229899999999999
Dy1Sb1Pt1,0.049299999999999
Dy4Sc4S12,1.773699999999999
Dy8Se8O24,1.8154
Dy4Te4As4,0.3109
Dy2Tl2P4Se12,1.5375
Dy2Tl2W4O16,2.917099999999999
Dy1Tl1S2,1.5281999999999991
Dy1Tl1Se2,1.233199999999999
Dy1Tl1Te2,0.7156
Dy4V4O12,1.6567999999999992
Dy2V2O8,2.9764
Dy2Zn2P2O2,1.2613
Er2Al6C6,0.026099999999999
Er2Cu6S6,1.445599999999999
Er4Cu12Te12,0.368399999999999
Er2Zn6P6,0.3703
Er4Au10F42,1.5935
Er4Cd2S8,1.1479
Er4Cr2Sb2O14,2.1271
Er4Mg2S8,2.0129
Er4Mn4O14,1.1678
Er8Mo4O24,1.8785
Er16Pb8S32,2.1115
Er4Pt4O14,1.4127
Er12S18,1.4691
Er8Se12,0.7923
Er2Se1O2,2.1741
Er4Sn4O14,2.6825
Er8Te12,0.0521
Er2Te1O2,0.603499999999999
Er2Te1S2,1.77
Er4Tl2Cu6S10,1.428799999999999
Er6Cu6Sb8,0.333899999999999
Er6Cu2Ge2S14,1.7469
Er6Cu2Si2S14,1.875999999999999
Er24Ga16,0.002499999999999
Er6Ga2S12,2.106499999999999
Er6Ru2I6,0.0495
Er3Tl2Cu5S8,1.2826
Er8C14,0.3912
Er16Cd4Pt4,0.0158
Er16Mg4Ni4,0.022299999999999
Er8Os2Br8,0.7195
Er8Zn10Ge12,0.0208
Er5Re2O12,0.0117
Er20C8Br36,0.922099999999999
Er12Al86Mo8,0.0155
Er6Co1Br10,0.0176
Er6H40N8O49,2.9432
Er6Ni1I10,0.6135
Er14C4I24N2,1.2187
Er7Co1I12,0.439899999999999
Er7Ir1I12,0.3853
Er16Ga6Co2,0.010299999999999
Er16In6Co2,0.002099999999999
Er8Mn3Mo5O28,0.666
Er2Ag2P4Se12,1.7618
Er8Ag8S16,1.7885
Er4Ag4Se8,1.2801
Er2Ag2Te4,0.8936000000000001
Er4As4S4,0.4672
Er4As4Se4,0.4869
Er4B16Mo4,0.5880999999999991
Er4B16W4,0.5911000000000001
Er1Bi2Br1O4,1.357
Er1Bi2Cl1O4,1.3769
Er1Bi2I1O4,1.375
Er4Co4O12,1.4471
Er4Cr4B16,0.161099999999999
Er8Cr8H8O40,2.456
Er4Cr4O12,0.2571
Er2Cr2O8,0.300399999999999
Er2Cr2Te2O12,2.6495
Er2Cu2Pb2S6,1.5553
Er4Cu4Pb4Se12,1.133099999999998
Er4Cu4S8,1.629299999999999
Er6Ge6Rh12,0.015699999999999
Er1H1Se1,1.4817
Er2I6,2.0376
Er4Mn8O20,1.0779
Er4Mo4Br4O16,1.9042
Er2Mo2Cl2O8,2.7062
Er1N1,0.124299999999999
Er1Ni1Bi1,0.169999999999999
Er1Ni1Sb1,0.2739
Er8P8S8,0.232599999999999
Er8P8S32,2.1659
Er1Pa1O4,2.4341
Er4Pt4F28,2.2785
Er4Rh4O12,0.9642
Er2S2Cl2,2.9329
Er2S2F2,1.324399999999999
Er4Sb4O16,2.382399999999999
Er1Sb1Pd1,0.209299999999999
Er2Se2I2,2.309
Er1Sn1Au1,0.006099999999999
Er4Te4As4,0.3619
Er2Tl2P4Se12,1.4836
Er2Tl2W4O16,2.9077
Er4Tl8P8Se28,1.0722
Er1Tl1S2,1.4109
Er1Tl1Se2,1.2151
Er1Tl1Te2,0.8205999999999991
Er4V4O12,1.5838
Er2V2O8,2.9661
Er1Zn1Cu1P2,0.1001
Eu2Al4Cl16,1.6997
Eu2Al4S8,1.1797
Eu2Al4Se8,1.002199999999999
Eu4B8H32,1.572
Eu4B8O16,0.290299999999999
Eu4Dy8S16,0.1116
Eu4Dy8Se16,0.1657
Eu4Er8Se16,0.1678
Eu4Ga8As8,0.023899999999999
Eu8Ga16S32,0.2343
Eu4Ho8Se16,0.1142
Eu4Lu8Se16,0.1428
Eu3P6Ir6,0.336099999999999
Eu1Re2O8,0.2764
Eu4Y8Se16,0.124399999999999
Eu8B8O20,0.0819
Eu8B20Br4O36,0.799199999999999
Eu8B20Cl4O36,0.759
Eu8B4I4N8,0.189499999999999
Eu2C1N2Cl2,0.9358999999999992
Eu2Fe1H6,0.072099999999999
Eu2H3Br1,0.091
Eu4Hf4Mo14O56,0.3594
Eu4I4O2,0.048
Eu4Mg2Si4O14,0.0118
Eu8Si4Cl8O12,0.642799999999999
Eu8Si4O16,0.288899999999999
Eu4Si2S8,0.2894
Eu2Ta1Al1O6,0.3394
Eu6Al4As8,0.0059
Eu6Al4P8,0.0266
Eu6As4S16,0.2486
Eu6B4O12,0.4588
Eu12Ge8As16,0.012199999999999
Eu6Nb2O14,0.150999999999999
Eu6Rh8Pb26,0.028599999999999
Eu6Sn26Ir8,0.1086
Eu6Ta2O14,0.1545
Eu8Br12O2,0.8538000000000001
Eu32C16N32F40,0.162399999999999
Eu8Cl12O2,0.9888
Eu8I12O2,1.200199999999999
Eu10B6Cl2O18,0.2876
Eu10P6Cl2O24,0.6537000000000001
Eu10P6O24F2,0.390699999999999
Eu12Mo20O78,0.098199999999999
Eu7Cl2F12,0.5699000000000001
Eu2Al24O38,0.169599999999999
Eu4Al8O16,0.099199999999999
Eu32Al32F160,0.7047999999999991
Eu2B8O14,2.1466
Eu10Br20,1.045799999999999
Eu4C4N8,0.4575
Eu4C4O12,0.429299999999999
Eu4Cl8,1.214399999999999
Eu2Cl2F2,0.115499999999999
Eu2Cu2Se2F2,0.030499999999999
Eu4Dy4Cu4S12,0.0621
Eu2H2Cl2,0.307999999999999
Eu2Hf2F14,0.1365
Eu1Hf1O3,0.479599999999999
Eu4Hf4S12,0.1287
Eu4I8,1.3259
Eu1In2Ge4Ir4,0.1271
Eu2Lu2Cu2S6,0.1897
Eu8Mg24Si8N32,0.207599999999999
Eu2Mg2H8,0.170599999999999
Eu2Mo2O8,0.166599999999999
Eu4Nb8O24,0.155199999999999
Eu4P28,0.376
Eu4P4S12,0.8440000000000001
Eu4P4Se12,0.493299999999999
Eu4S4O16,1.0685
Eu2Se2O6,0.086599999999999
Eu4Si8N8O8,0.5023
Eu4Tl4P4S16,0.0566
Eu2Tm2Cu2S6,0.234099999999999
Eu2V2O8,0.1841
Eu2Zr2F12,0.5628000000000001
Eu4Zr4O12,0.186599999999999
Eu4Zr4S12,0.145299999999999
Fe4P8Pb6O32,2.4141999999999992
Fe4Pb2Se8O24,1.8645
Fe4Te4Pb6O24,1.754
Fe6Pb10F38,2.9969
Fe8As20Pb2O44,1.7469
Fe4B4Pb4O16,2.1228
Fe4Bi4Se12O36,2.6249
Fe1P6W3O24,2.0933
Fe1Re2H8O12,2.683799999999999
Fe4Sb12Pb16O52,1.253
Fe2W2O8,2.401
Ga12Bi48Cl48,1.422499999999999
Ga8Bi4S16,2.5289
Ga8Bi4Se16,1.8901
Ga8Hg12Cl32,2.489
Ga2Hg1S4,1.5707
Ga2Hg1Se4,0.9168
Ga2Hg1Te4,0.661099999999999
Ga16Pb8S32,2.2715
Ga16Pb8Se32,2.0313
Ga6Bi10Cl24,1.813
Ga12Os4,0.676999999999999
Ga8Bi4O18,2.8782
Ga4Hg11As4Br16,1.0916
Ga4Hg11P4Cl16,1.718799999999999
Ga36Te60Pb6,1.019
Ga4Bi12Sb8O44,2.7016
Ga8Hg16Sb8Cl32,1.1427
Ga2Hg2Cl8,2.8274
Ga4Re4Cl24O8,1.9749
Ga1Sb3Pb4O13,1.388999999999999
Gd16B48O96,2.692999999999999
Gd2Cl6O24,2.2925
Gd4I12O36,1.2373
Gd4N12O36,2.5904
Gd8S24O96,0.0048
Gd20S38,0.445
Gd8Au20F84,1.5508000000000002
Gd16B8O24F24,2.7369
Gd8Br12N4,1.8727
Gd2C1N2O2,2.4257
Gd2C1Cl2,0.4861
Gd2C1F2,0.7328
Gd4Cl6,0.1814
Gd4Cr2Sb2O14,1.9649
Gd4Fe2Sb2O14,1.8178